 Entering Gaussian System, Link 0=/s/ls4/groups/g0130/bin/g16/g16
 Input=sp1_s1_m062x.gjf
 Output=sp1_s1_m062x.log
 Initial command:
 /s/ls4/groups/g0130/bin/g16/l1.exe "/dev/shm/scratch_artd/Gau-25477.inp" -scrdir="/dev/shm/scratch_artd/"
 Entering Link 1 = /s/ls4/groups/g0130/bin/g16/l1.exe PID=     25478.
  
 Copyright (c) 1988,1990,1992,1993,1995,1998,2003,2009,2016,
            Gaussian, Inc.  All Rights Reserved.
  
 This is part of the Gaussian(R) 16 program.  It is based on
 the Gaussian(R) 09 system (copyright 2009, Gaussian, Inc.),
 the Gaussian(R) 03 system (copyright 2003, Gaussian, Inc.),
 the Gaussian(R) 98 system (copyright 1998, Gaussian, Inc.),
 the Gaussian(R) 94 system (copyright 1995, Gaussian, Inc.),
 the Gaussian 92(TM) system (copyright 1992, Gaussian, Inc.),
 the Gaussian 90(TM) system (copyright 1990, Gaussian, Inc.),
 the Gaussian 88(TM) system (copyright 1988, Gaussian, Inc.),
 the Gaussian 86(TM) system (copyright 1986, Carnegie Mellon
 University), and the Gaussian 82(TM) system (copyright 1983,
 Carnegie Mellon University). Gaussian is a federally registered
 trademark of Gaussian, Inc.
  
 This software contains proprietary and confidential information,
 including trade secrets, belonging to Gaussian, Inc.
  
 This software is provided under written license and may be
 used, copied, transmitted, or stored only in accord with that
 written license.
  
 The following legend is applicable only to US Government
 contracts under FAR:
  
                    RESTRICTED RIGHTS LEGEND
  
 Use, reproduction and disclosure by the US Government is
 subject to restrictions as set forth in subparagraphs (a)
 and (c) of the Commercial Computer Software - Restricted
 Rights clause in FAR 52.227-19.
  
 Gaussian, Inc.
 340 Quinnipiac St., Bldg. 40, Wallingford CT 06492
  
  
 ---------------------------------------------------------------
 Warning -- This program may not be used in any manner that
 competes with the business of Gaussian, Inc. or will provide
 assistance to any competitor of Gaussian, Inc.  The licensee
 of this program is prohibited from giving any competitor of
 Gaussian, Inc. access to this program.  By using this program,
 the user acknowledges that Gaussian, Inc. is engaged in the
 business of creating and licensing software in the field of
 computational chemistry and represents and warrants to the
 licensee that it is not a competitor of Gaussian, Inc. and that
 it will not use this program in any manner prohibited above.
 ---------------------------------------------------------------
  

 Cite this work as:
 Gaussian 16, Revision A.03,
 M. J. Frisch, G. W. Trucks, H. B. Schlegel, G. E. Scuseria, 
 M. A. Robb, J. R. Cheeseman, G. Scalmani, V. Barone, 
 G. A. Petersson, H. Nakatsuji, X. Li, M. Caricato, A. V. Marenich, 
 J. Bloino, B. G. Janesko, R. Gomperts, B. Mennucci, H. P. Hratchian, 
 J. V. Ortiz, A. F. Izmaylov, J. L. Sonnenberg, D. Williams-Young, 
 F. Ding, F. Lipparini, F. Egidi, J. Goings, B. Peng, A. Petrone, 
 T. Henderson, D. Ranasinghe, V. G. Zakrzewski, J. Gao, N. Rega, 
 G. Zheng, W. Liang, M. Hada, M. Ehara, K. Toyota, R. Fukuda, 
 J. Hasegawa, M. Ishida, T. Nakajima, Y. Honda, O. Kitao, H. Nakai, 
 T. Vreven, K. Throssell, J. A. Montgomery, Jr., J. E. Peralta, 
 F. Ogliaro, M. J. Bearpark, J. J. Heyd, E. N. Brothers, K. N. Kudin, 
 V. N. Staroverov, T. A. Keith, R. Kobayashi, J. Normand, 
 K. Raghavachari, A. P. Rendell, J. C. Burant, S. S. Iyengar, 
 J. Tomasi, M. Cossi, J. M. Millam, M. Klene, C. Adamo, R. Cammi, 
 J. W. Ochterski, R. L. Martin, K. Morokuma, O. Farkas, 
 J. B. Foresman, and D. J. Fox, Gaussian, Inc., Wallingford CT, 2016.
 
 ******************************************
 Gaussian 16:  ES64L-G16RevA.03 25-Dec-2016
                 7-May-2024 
 ******************************************
 %nprocshared=24
 Will use up to   24 processors via shared memory.
 %mem=20GB
 %oldchk=sp1_gs_m062x.chk
 %chk=sp1_s1_m062x.chk
 Copying data from "sp1_gs_m062x.chk" to current chk file "sp1_s1_m062x.chk"
 IOpt=  2 FromEx=T IUOpen= 4 IOptOp= 5 NList=   0 IFRang= 0 IUIn= 4 IUOut= 2.
 ----------------------------------------------------------------------
 #p M062X/def2TZVP SCRF(PCM,Solvent=acetone) TD(Singlets,NStates=5, roo
 t=1) integral=ultrafine opt guess=(read) geom=(allcheck) gfinput
 ----------------------------------------------------------------------
 1/18=20,19=15,26=6,29=7,38=1/1,3;
 2/9=110,12=2,40=1/2;
 3/5=44,7=101,11=9,14=-4,24=10,25=1,30=1,70=2201,71=1,72=19,74=-55,75=-5,116=-2/1,2,3,8;
 4/5=1/1;
 5/5=2,38=6,53=19/2;
 8/6=1,10=1,107=1,108=5/1;
 9/8=1,15=2,41=5,42=1,48=1,70=2/14;
 10/5=4,28=1/2;
 6/7=2,8=2,9=2,10=2/1;
 7/12=6,13=5,14=1/1,2,3,16;
 1/18=20,19=15,26=6/3(2);
 2/9=110/2;
 99//99;
 2/9=110/2;
 3/5=44,7=101,11=9,14=-2,25=1,30=1,70=2205,71=1,72=19,74=-55,75=-5/1,2,3,8;
 4/5=5,16=3,69=1/1;
 5/5=2,38=5,53=19/2;
 8/6=1,10=1,107=1,108=5/1;
 9/8=1,15=2,41=5,42=1,48=1,49=4,70=2/14;
 10/5=4,28=1/2;
 7/12=6,13=5,14=1/1,2,3,16;
 1/18=20,19=15,26=6/3(-8);
 2/9=110/2;
 6/7=2,8=2,9=2,10=2/1;
 99//99;
 Leave Link    1 at Tue May  7 19:42:50 2024, MaxMem=  2684354560 cpu:              13.6 elap:               0.6
 (Enter /s/ls4/groups/g0130/bin/g16/l101.exe)
 Structure from the checkpoint file:  "sp1_s1_m062x.chk"
 -----
 TITLE
 -----
 Charge =  0 Multiplicity = 1
 Redundant internal coordinates found in file.  (old form).
 C,0,-5.5432286558,1.4009449566,-1.4847770998
 C,0,-4.6275986192,0.8365429094,-0.594322497
 C,0,-3.6834030531,1.6733714936,-0.0227027847
 C,0,-3.6341246257,3.0325092796,-0.3368888326
 C,0,-4.540272884,3.5799869276,-1.2170948348
 C,0,-5.5065989919,2.7518757624,-1.7973650102
 H,0,-4.6574314955,-0.2211859631,-0.3691532483
 H,0,-6.2220894417,3.1644020759,-2.4960488737
 H,0,-6.2891867067,0.7654936681,-1.9450026838
 H,0,-4.5033804485,4.6351866002,-1.4625327019
 N,0,-2.6821294672,1.3542894946,0.8999671408
 C,0,-1.6913276364,2.4106419475,0.85494432
 C,0,-2.5294221132,3.6764585444,0.4706558609
 C,0,-2.2361322039,-0.0188206738,1.0174538043
 H,0,-1.4631151345,-0.0826361195,1.7817707551
 H,0,-1.8389889499,-0.4024244615,0.0703076752
 C,0,-3.1530785163,4.3200702731,1.7172186728
 H,0,-3.6678064174,3.5809336115,2.3329519718
 H,0,-3.8815926364,5.0652267079,1.3974429241
 H,0,-2.3967041074,4.8229822989,2.3218237102
 C,0,-1.7153715799,4.717110749,-0.2865480356
 H,0,-1.362984482,4.3373446563,-1.2427424311
 H,0,-0.8528214057,5.029455692,0.3062642154
 H,0,-2.3335067219,5.5975642298,-0.467882974
 O,0,-0.8096779318,2.1649732345,-0.2766782858
 C,0,0.3763891642,1.5579699321,-0.1360124098
 C,0,-0.9216062174,2.5032118239,2.1363567058
 C,0,0.3285963832,2.0646388695,2.2528547528
 C,0,1.0185287604,1.4911411329,1.1089994601
 H,0,-1.4564390752,2.891899654,2.9908802756
 H,0,0.8494543935,2.1077900929,3.2013951265
 C,0,2.2668277635,0.8940829059,1.1899193405
 C,0,0.9776555936,1.041535171,-1.2831841041
 C,0,2.2197334485,0.448310478,-1.19541957
 C,0,2.8461843841,0.3806769737,0.0428759163
 H,0,2.7845676411,0.8322454317,2.1367933339
 H,0,0.457139692,1.1146983099,-2.2278882105
 H,0,2.7046843662,0.0387452688,-2.0687994347
 N,0,4.158883943,-0.24842259,0.1376055297
 O,0,4.6904831722,-0.3044268297,1.2279406717
 O,0,4.6587381639,-0.6867576074,-0.8783998864
 H,0,-3.0689274048,-0.6484887793,1.3272078392
 Recover connectivity data from disk.
 ITRead=  0  0  0  0  0  0  0  0  0  0  0  0  0  0  0  0  0  0  0  0
 ITRead=  0  0  0  0  0  0  0  0  0  0  0  0  0  0  0  0  0  0  0  0
 ITRead=  0  0
 MicOpt= -1 -1 -1 -1 -1 -1 -1 -1 -1 -1 -1 -1 -1 -1 -1 -1 -1 -1 -1 -1
 MicOpt= -1 -1 -1 -1 -1 -1 -1 -1 -1 -1 -1 -1 -1 -1 -1 -1 -1 -1 -1 -1
 MicOpt= -1 -1
 NAtoms=     42 NQM=       42 NQMF=       0 NMMI=      0 NMMIF=      0
                NMic=       0 NMicF=      0.
                    Isotopes and Nuclear Properties:
 (Nuclear quadrupole moments (NQMom) in fm**2, nuclear magnetic moments (NMagM)
  in nuclear magnetons)

  Atom         1           2           3           4           5           6           7           8           9          10
 IAtWgt=          12          12          12          12          12          12           1           1           1           1
 AtmWgt=  12.0000000  12.0000000  12.0000000  12.0000000  12.0000000  12.0000000   1.0078250   1.0078250   1.0078250   1.0078250
 NucSpn=           0           0           0           0           0           0           1           1           1           1
 AtZEff=   3.6000000   3.6000000   3.6000000   3.6000000   3.6000000   3.6000000   1.0000000   1.0000000   1.0000000   1.0000000
 NQMom=    0.0000000   0.0000000   0.0000000   0.0000000   0.0000000   0.0000000   0.0000000   0.0000000   0.0000000   0.0000000
 NMagM=    0.0000000   0.0000000   0.0000000   0.0000000   0.0000000   0.0000000   2.7928460   2.7928460   2.7928460   2.7928460
 AtZNuc=   6.0000000   6.0000000   6.0000000   6.0000000   6.0000000   6.0000000   1.0000000   1.0000000   1.0000000   1.0000000

  Atom        11          12          13          14          15          16          17          18          19          20
 IAtWgt=          14          12          12          12           1           1          12           1           1           1
 AtmWgt=  14.0030740  12.0000000  12.0000000  12.0000000   1.0078250   1.0078250  12.0000000   1.0078250   1.0078250   1.0078250
 NucSpn=           2           0           0           0           1           1           0           1           1           1
 AtZEff=   4.5500000   3.6000000   3.6000000   3.6000000   1.0000000   1.0000000   3.6000000   1.0000000   1.0000000   1.0000000
 NQMom=    2.0440000   0.0000000   0.0000000   0.0000000   0.0000000   0.0000000   0.0000000   0.0000000   0.0000000   0.0000000
 NMagM=    0.4037610   0.0000000   0.0000000   0.0000000   2.7928460   2.7928460   0.0000000   2.7928460   2.7928460   2.7928460
 AtZNuc=   7.0000000   6.0000000   6.0000000   6.0000000   1.0000000   1.0000000   6.0000000   1.0000000   1.0000000   1.0000000

  Atom        21          22          23          24          25          26          27          28          29          30
 IAtWgt=          12           1           1           1          16          12          12          12          12           1
 AtmWgt=  12.0000000   1.0078250   1.0078250   1.0078250  15.9949146  12.0000000  12.0000000  12.0000000  12.0000000   1.0078250
 NucSpn=           0           1           1           1           0           0           0           0           0           1
 AtZEff=   3.6000000   1.0000000   1.0000000   1.0000000   5.6000000   3.6000000   3.6000000   3.6000000   3.6000000   1.0000000
 NQMom=    0.0000000   0.0000000   0.0000000   0.0000000   0.0000000   0.0000000   0.0000000   0.0000000   0.0000000   0.0000000
 NMagM=    0.0000000   2.7928460   2.7928460   2.7928460   0.0000000   0.0000000   0.0000000   0.0000000   0.0000000   2.7928460
 AtZNuc=   6.0000000   1.0000000   1.0000000   1.0000000   8.0000000   6.0000000   6.0000000   6.0000000   6.0000000   1.0000000

  Atom        31          32          33          34          35          36          37          38          39          40
 IAtWgt=           1          12          12          12          12           1           1           1          14          16
 AtmWgt=   1.0078250  12.0000000  12.0000000  12.0000000  12.0000000   1.0078250   1.0078250   1.0078250  14.0030740  15.9949146
 NucSpn=           1           0           0           0           0           1           1           1           2           0
 AtZEff=   1.0000000   3.6000000   3.6000000   3.6000000   3.6000000   1.0000000   1.0000000   1.0000000   4.5500000   5.6000000
 NQMom=    0.0000000   0.0000000   0.0000000   0.0000000   0.0000000   0.0000000   0.0000000   0.0000000   2.0440000   0.0000000
 NMagM=    2.7928460   0.0000000   0.0000000   0.0000000   0.0000000   2.7928460   2.7928460   2.7928460   0.4037610   0.0000000
 AtZNuc=   1.0000000   6.0000000   6.0000000   6.0000000   6.0000000   1.0000000   1.0000000   1.0000000   7.0000000   8.0000000

  Atom        41          42
 IAtWgt=          16           1
 AtmWgt=  15.9949146   1.0078250
 NucSpn=           0           1
 AtZEff=   5.6000000   1.0000000
 NQMom=    0.0000000   0.0000000
 NMagM=    0.0000000   2.7928460
 AtZNuc=   8.0000000   1.0000000
 Leave Link  101 at Tue May  7 19:42:51 2024, MaxMem=  2684354560 cpu:               8.7 elap:               0.4
 (Enter /s/ls4/groups/g0130/bin/g16/l103.exe)

 GradGradGradGradGradGradGradGradGradGradGradGradGradGradGradGradGradGrad
 Berny optimization.
 Initialization pass.
                           ----------------------------
                           !    Initial Parameters    !
                           ! (Angstroms and Degrees)  !
 --------------------------                            --------------------------
 ! Name  Definition              Value          Derivative Info.                !
 --------------------------------------------------------------------------------
 ! R1    R(1,2)                  1.3964         estimate D2E/DX2                !
 ! R2    R(1,6)                  1.3871         estimate D2E/DX2                !
 ! R3    R(1,9)                  1.0826         estimate D2E/DX2                !
 ! R4    R(2,3)                  1.3851         estimate D2E/DX2                !
 ! R5    R(2,7)                  1.0818         estimate D2E/DX2                !
 ! R6    R(3,4)                  1.3958         estimate D2E/DX2                !
 ! R7    R(3,11)                 1.3985         estimate D2E/DX2                !
 ! R8    R(4,5)                  1.3768         estimate D2E/DX2                !
 ! R9    R(4,13)                 1.5123         estimate D2E/DX2                !
 ! R10   R(5,6)                  1.3987         estimate D2E/DX2                !
 ! R11   R(5,10)                 1.084          estimate D2E/DX2                !
 ! R12   R(6,8)                  1.0818         estimate D2E/DX2                !
 ! R13   R(11,12)                1.449          estimate D2E/DX2                !
 ! R14   R(11,14)                1.4485         estimate D2E/DX2                !
 ! R15   R(12,13)                1.566          estimate D2E/DX2                !
 ! R16   R(12,25)                1.4554         estimate D2E/DX2                !
 ! R17   R(12,27)                1.4977         estimate D2E/DX2                !
 ! R18   R(13,17)                1.5353         estimate D2E/DX2                !
 ! R19   R(13,21)                1.5228         estimate D2E/DX2                !
 ! R20   R(14,15)                1.0889         estimate D2E/DX2                !
 ! R21   R(14,16)                1.0963         estimate D2E/DX2                !
 ! R22   R(14,42)                1.089          estimate D2E/DX2                !
 ! R23   R(17,18)                1.0911         estimate D2E/DX2                !
 ! R24   R(17,19)                1.0901         estimate D2E/DX2                !
 ! R25   R(17,20)                1.0911         estimate D2E/DX2                !
 ! R26   R(21,22)                1.0875         estimate D2E/DX2                !
 ! R27   R(21,23)                1.0922         estimate D2E/DX2                !
 ! R28   R(21,24)                1.0909         estimate D2E/DX2                !
 ! R29   R(25,26)                1.3398         estimate D2E/DX2                !
 ! R30   R(26,29)                1.4024         estimate D2E/DX2                !
 ! R31   R(26,33)                1.3944         estimate D2E/DX2                !
 ! R32   R(27,28)                1.33           estimate D2E/DX2                !
 ! R33   R(27,30)                1.0804         estimate D2E/DX2                !
 ! R34   R(28,29)                1.4537         estimate D2E/DX2                !
 ! R35   R(28,31)                1.083          estimate D2E/DX2                !
 ! R36   R(29,32)                1.3861         estimate D2E/DX2                !
 ! R37   R(32,35)                1.3838         estimate D2E/DX2                !
 ! R38   R(32,36)                1.0809         estimate D2E/DX2                !
 ! R39   R(33,34)                1.3793         estimate D2E/DX2                !
 ! R40   R(33,37)                1.0811         estimate D2E/DX2                !
 ! R41   R(34,35)                1.3894         estimate D2E/DX2                !
 ! R42   R(34,38)                1.0797         estimate D2E/DX2                !
 ! R43   R(35,39)                1.4587         estimate D2E/DX2                !
 ! R44   R(39,40)                1.2143         estimate D2E/DX2                !
 ! R45   R(39,41)                1.2142         estimate D2E/DX2                !
 ! A1    A(2,1,6)              121.3351         estimate D2E/DX2                !
 ! A2    A(2,1,9)              119.0555         estimate D2E/DX2                !
 ! A3    A(6,1,9)              119.607          estimate D2E/DX2                !
 ! A4    A(1,2,3)              117.7725         estimate D2E/DX2                !
 ! A5    A(1,2,7)              120.6524         estimate D2E/DX2                !
 ! A6    A(3,2,7)              121.5738         estimate D2E/DX2                !
 ! A7    A(2,3,4)              121.295          estimate D2E/DX2                !
 ! A8    A(2,3,11)             128.499          estimate D2E/DX2                !
 ! A9    A(4,3,11)             110.206          estimate D2E/DX2                !
 ! A10   A(3,4,5)              120.5207         estimate D2E/DX2                !
 ! A11   A(3,4,13)             108.6748         estimate D2E/DX2                !
 ! A12   A(5,4,13)             130.7539         estimate D2E/DX2                !
 ! A13   A(4,5,6)              118.9804         estimate D2E/DX2                !
 ! A14   A(4,5,10)             120.626          estimate D2E/DX2                !
 ! A15   A(6,5,10)             120.3926         estimate D2E/DX2                !
 ! A16   A(1,6,5)              120.0915         estimate D2E/DX2                !
 ! A17   A(1,6,8)              119.9651         estimate D2E/DX2                !
 ! A18   A(5,6,8)              119.9421         estimate D2E/DX2                !
 ! A19   A(3,11,12)            107.6222         estimate D2E/DX2                !
 ! A20   A(3,11,14)            119.3577         estimate D2E/DX2                !
 ! A21   A(12,11,14)           118.8855         estimate D2E/DX2                !
 ! A22   A(11,12,13)           103.3532         estimate D2E/DX2                !
 ! A23   A(11,12,25)           108.3801         estimate D2E/DX2                !
 ! A24   A(11,12,27)           111.7094         estimate D2E/DX2                !
 ! A25   A(13,12,25)           105.6545         estimate D2E/DX2                !
 ! A26   A(13,12,27)           115.7884         estimate D2E/DX2                !
 ! A27   A(25,12,27)           111.3676         estimate D2E/DX2                !
 ! A28   A(4,13,12)            100.2408         estimate D2E/DX2                !
 ! A29   A(4,13,17)            108.3807         estimate D2E/DX2                !
 ! A30   A(4,13,21)            114.5789         estimate D2E/DX2                !
 ! A31   A(12,13,17)           110.9165         estimate D2E/DX2                !
 ! A32   A(12,13,21)           112.849          estimate D2E/DX2                !
 ! A33   A(17,13,21)           109.536          estimate D2E/DX2                !
 ! A34   A(11,14,15)           109.3328         estimate D2E/DX2                !
 ! A35   A(11,14,16)           111.91           estimate D2E/DX2                !
 ! A36   A(11,14,42)           109.6159         estimate D2E/DX2                !
 ! A37   A(15,14,16)           109.1909         estimate D2E/DX2                !
 ! A38   A(15,14,42)           108.0189         estimate D2E/DX2                !
 ! A39   A(16,14,42)           108.6891         estimate D2E/DX2                !
 ! A40   A(13,17,18)           111.4606         estimate D2E/DX2                !
 ! A41   A(13,17,19)           108.6547         estimate D2E/DX2                !
 ! A42   A(13,17,20)           111.1944         estimate D2E/DX2                !
 ! A43   A(18,17,19)           108.2617         estimate D2E/DX2                !
 ! A44   A(18,17,20)           109.0605         estimate D2E/DX2                !
 ! A45   A(19,17,20)           108.105          estimate D2E/DX2                !
 ! A46   A(13,21,22)           111.8248         estimate D2E/DX2                !
 ! A47   A(13,21,23)           110.3467         estimate D2E/DX2                !
 ! A48   A(13,21,24)           109.3464         estimate D2E/DX2                !
 ! A49   A(22,21,23)           108.7344         estimate D2E/DX2                !
 ! A50   A(22,21,24)           108.619          estimate D2E/DX2                !
 ! A51   A(23,21,24)           107.871          estimate D2E/DX2                !
 ! A52   A(12,25,26)           122.0809         estimate D2E/DX2                !
 ! A53   A(25,26,29)           121.3413         estimate D2E/DX2                !
 ! A54   A(25,26,33)           117.5916         estimate D2E/DX2                !
 ! A55   A(29,26,33)           121.016          estimate D2E/DX2                !
 ! A56   A(12,27,28)           122.5248         estimate D2E/DX2                !
 ! A57   A(12,27,30)           116.3929         estimate D2E/DX2                !
 ! A58   A(28,27,30)           120.9751         estimate D2E/DX2                !
 ! A59   A(27,28,29)           120.4832         estimate D2E/DX2                !
 ! A60   A(27,28,31)           121.0416         estimate D2E/DX2                !
 ! A61   A(29,28,31)           118.465          estimate D2E/DX2                !
 ! A62   A(26,29,28)           117.5429         estimate D2E/DX2                !
 ! A63   A(26,29,32)           118.9929         estimate D2E/DX2                !
 ! A64   A(28,29,32)           123.4637         estimate D2E/DX2                !
 ! A65   A(29,32,35)           119.2396         estimate D2E/DX2                !
 ! A66   A(29,32,36)           120.4729         estimate D2E/DX2                !
 ! A67   A(35,32,36)           120.2872         estimate D2E/DX2                !
 ! A68   A(26,33,34)           119.6877         estimate D2E/DX2                !
 ! A69   A(26,33,37)           119.0944         estimate D2E/DX2                !
 ! A70   A(34,33,37)           121.2179         estimate D2E/DX2                !
 ! A71   A(33,34,35)           118.9264         estimate D2E/DX2                !
 ! A72   A(33,34,38)           121.0755         estimate D2E/DX2                !
 ! A73   A(35,34,38)           119.9981         estimate D2E/DX2                !
 ! A74   A(32,35,34)           122.1359         estimate D2E/DX2                !
 ! A75   A(32,35,39)           118.8766         estimate D2E/DX2                !
 ! A76   A(34,35,39)           118.9872         estimate D2E/DX2                !
 ! A77   A(35,39,40)           118.1738         estimate D2E/DX2                !
 ! A78   A(35,39,41)           118.152          estimate D2E/DX2                !
 ! A79   A(40,39,41)           123.6741         estimate D2E/DX2                !
 ! D1    D(6,1,2,3)              0.4651         estimate D2E/DX2                !
 ! D2    D(6,1,2,7)           -179.1279         estimate D2E/DX2                !
 ! D3    D(9,1,2,3)            179.8922         estimate D2E/DX2                !
 ! D4    D(9,1,2,7)              0.2992         estimate D2E/DX2                !
 ! D5    D(2,1,6,5)             -0.0527         estimate D2E/DX2                !
 ! D6    D(2,1,6,8)            179.5309         estimate D2E/DX2                !
 ! D7    D(9,1,6,5)           -179.4767         estimate D2E/DX2                !
 ! D8    D(9,1,6,8)              0.1069         estimate D2E/DX2                !
 ! D9    D(1,2,3,4)             -0.8263         estimate D2E/DX2                !
 ! D10   D(1,2,3,11)           179.1354         estimate D2E/DX2                !
 ! D11   D(7,2,3,4)            178.7627         estimate D2E/DX2                !
 ! D12   D(7,2,3,11)            -1.2755         estimate D2E/DX2                !
 ! D13   D(2,3,4,5)              0.7839         estimate D2E/DX2                !
 ! D14   D(2,3,4,13)           178.4632         estimate D2E/DX2                !
 ! D15   D(11,3,4,5)          -179.1842         estimate D2E/DX2                !
 ! D16   D(11,3,4,13)           -1.5049         estimate D2E/DX2                !
 ! D17   D(2,3,11,12)          161.0069         estimate D2E/DX2                !
 ! D18   D(2,3,11,14)           21.5249         estimate D2E/DX2                !
 ! D19   D(4,3,11,12)          -19.0279         estimate D2E/DX2                !
 ! D20   D(4,3,11,14)         -158.5099         estimate D2E/DX2                !
 ! D21   D(3,4,5,6)             -0.3442         estimate D2E/DX2                !
 ! D22   D(3,4,5,10)          -179.9813         estimate D2E/DX2                !
 ! D23   D(13,4,5,6)          -177.4414         estimate D2E/DX2                !
 ! D24   D(13,4,5,10)            2.9214         estimate D2E/DX2                !
 ! D25   D(3,4,13,12)           19.2161         estimate D2E/DX2                !
 ! D26   D(3,4,13,17)          -97.0359         estimate D2E/DX2                !
 ! D27   D(3,4,13,21)          140.3166         estimate D2E/DX2                !
 ! D28   D(5,4,13,12)         -163.4232         estimate D2E/DX2                !
 ! D29   D(5,4,13,17)           80.3247         estimate D2E/DX2                !
 ! D30   D(5,4,13,21)          -42.3228         estimate D2E/DX2                !
 ! D31   D(4,5,6,1)             -0.0128         estimate D2E/DX2                !
 ! D32   D(4,5,6,8)           -179.5965         estimate D2E/DX2                !
 ! D33   D(10,5,6,1)           179.6253         estimate D2E/DX2                !
 ! D34   D(10,5,6,8)             0.0416         estimate D2E/DX2                !
 ! D35   D(3,11,12,13)          30.4464         estimate D2E/DX2                !
 ! D36   D(3,11,12,25)         -81.3379         estimate D2E/DX2                !
 ! D37   D(3,11,12,27)         155.6007         estimate D2E/DX2                !
 ! D38   D(14,11,12,13)        170.1524         estimate D2E/DX2                !
 ! D39   D(14,11,12,25)         58.368          estimate D2E/DX2                !
 ! D40   D(14,11,12,27)        -64.6934         estimate D2E/DX2                !
 ! D41   D(3,11,14,15)        -179.6705         estimate D2E/DX2                !
 ! D42   D(3,11,14,16)          59.2259         estimate D2E/DX2                !
 ! D43   D(3,11,14,42)         -61.438          estimate D2E/DX2                !
 ! D44   D(12,11,14,15)         45.3356         estimate D2E/DX2                !
 ! D45   D(12,11,14,16)        -75.7681         estimate D2E/DX2                !
 ! D46   D(12,11,14,42)        163.568          estimate D2E/DX2                !
 ! D47   D(11,12,13,4)         -29.375          estimate D2E/DX2                !
 ! D48   D(11,12,13,17)         84.961          estimate D2E/DX2                !
 ! D49   D(11,12,13,21)       -151.7052         estimate D2E/DX2                !
 ! D50   D(25,12,13,4)          84.3961         estimate D2E/DX2                !
 ! D51   D(25,12,13,17)       -161.2678         estimate D2E/DX2                !
 ! D52   D(25,12,13,21)        -37.934          estimate D2E/DX2                !
 ! D53   D(27,12,13,4)        -151.8492         estimate D2E/DX2                !
 ! D54   D(27,12,13,17)        -37.5132         estimate D2E/DX2                !
 ! D55   D(27,12,13,21)         85.8206         estimate D2E/DX2                !
 ! D56   D(11,12,25,26)        -97.4537         estimate D2E/DX2                !
 ! D57   D(13,12,25,26)        152.3122         estimate D2E/DX2                !
 ! D58   D(27,12,25,26)         25.8142         estimate D2E/DX2                !
 ! D59   D(11,12,27,28)        104.8491         estimate D2E/DX2                !
 ! D60   D(11,12,27,30)        -71.4164         estimate D2E/DX2                !
 ! D61   D(13,12,27,28)       -137.2172         estimate D2E/DX2                !
 ! D62   D(13,12,27,30)         46.5172         estimate D2E/DX2                !
 ! D63   D(25,12,27,28)        -16.4974         estimate D2E/DX2                !
 ! D64   D(25,12,27,30)        167.237          estimate D2E/DX2                !
 ! D65   D(4,13,17,18)          59.5875         estimate D2E/DX2                !
 ! D66   D(4,13,17,19)         -59.6275         estimate D2E/DX2                !
 ! D67   D(4,13,17,20)        -178.489          estimate D2E/DX2                !
 ! D68   D(12,13,17,18)        -49.5329         estimate D2E/DX2                !
 ! D69   D(12,13,17,19)       -168.7479         estimate D2E/DX2                !
 ! D70   D(12,13,17,20)         72.3906         estimate D2E/DX2                !
 ! D71   D(21,13,17,18)       -174.7518         estimate D2E/DX2                !
 ! D72   D(21,13,17,19)         66.0332         estimate D2E/DX2                !
 ! D73   D(21,13,17,20)        -52.8283         estimate D2E/DX2                !
 ! D74   D(4,13,21,22)         -50.5753         estimate D2E/DX2                !
 ! D75   D(4,13,21,23)        -171.741          estimate D2E/DX2                !
 ! D76   D(4,13,21,24)          69.7637         estimate D2E/DX2                !
 ! D77   D(12,13,21,22)         63.3081         estimate D2E/DX2                !
 ! D78   D(12,13,21,23)        -57.8576         estimate D2E/DX2                !
 ! D79   D(12,13,21,24)       -176.3529         estimate D2E/DX2                !
 ! D80   D(17,13,21,22)       -172.5959         estimate D2E/DX2                !
 ! D81   D(17,13,21,23)         66.2385         estimate D2E/DX2                !
 ! D82   D(17,13,21,24)        -52.2568         estimate D2E/DX2                !
 ! D83   D(12,25,26,29)        -19.7523         estimate D2E/DX2                !
 ! D84   D(12,25,26,33)        162.82           estimate D2E/DX2                !
 ! D85   D(25,26,29,28)          2.0789         estimate D2E/DX2                !
 ! D86   D(25,26,29,32)       -177.6793         estimate D2E/DX2                !
 ! D87   D(33,26,29,28)        179.4188         estimate D2E/DX2                !
 ! D88   D(33,26,29,32)         -0.3394         estimate D2E/DX2                !
 ! D89   D(25,26,33,34)        177.8022         estimate D2E/DX2                !
 ! D90   D(25,26,33,37)         -2.2229         estimate D2E/DX2                !
 ! D91   D(29,26,33,34)          0.3656         estimate D2E/DX2                !
 ! D92   D(29,26,33,37)       -179.6594         estimate D2E/DX2                !
 ! D93   D(12,27,28,29)          1.2627         estimate D2E/DX2                !
 ! D94   D(12,27,28,31)       -177.5585         estimate D2E/DX2                !
 ! D95   D(30,27,28,29)        177.3608         estimate D2E/DX2                !
 ! D96   D(30,27,28,31)         -1.4604         estimate D2E/DX2                !
 ! D97   D(27,28,29,26)          6.9813         estimate D2E/DX2                !
 ! D98   D(27,28,29,32)       -173.2722         estimate D2E/DX2                !
 ! D99   D(31,28,29,26)       -174.1675         estimate D2E/DX2                !
 ! D100  D(31,28,29,32)          5.579          estimate D2E/DX2                !
 ! D101  D(26,29,32,35)          0.0106         estimate D2E/DX2                !
 ! D102  D(26,29,32,36)        179.8144         estimate D2E/DX2                !
 ! D103  D(28,29,32,35)       -179.7324         estimate D2E/DX2                !
 ! D104  D(28,29,32,36)          0.0714         estimate D2E/DX2                !
 ! D105  D(29,32,35,34)          0.2975         estimate D2E/DX2                !
 ! D106  D(29,32,35,39)       -179.8747         estimate D2E/DX2                !
 ! D107  D(36,32,35,34)       -179.5066         estimate D2E/DX2                !
 ! D108  D(36,32,35,39)          0.3211         estimate D2E/DX2                !
 ! D109  D(26,33,34,35)         -0.0606         estimate D2E/DX2                !
 ! D110  D(26,33,34,38)        179.8339         estimate D2E/DX2                !
 ! D111  D(37,33,34,35)        179.965          estimate D2E/DX2                !
 ! D112  D(37,33,34,38)         -0.1405         estimate D2E/DX2                !
 ! D113  D(33,34,35,32)         -0.2729         estimate D2E/DX2                !
 ! D114  D(33,34,35,39)        179.8996         estimate D2E/DX2                !
 ! D115  D(38,34,35,32)        179.8315         estimate D2E/DX2                !
 ! D116  D(38,34,35,39)          0.0039         estimate D2E/DX2                !
 ! D117  D(32,35,39,40)          0.4655         estimate D2E/DX2                !
 ! D118  D(32,35,39,41)       -179.5347         estimate D2E/DX2                !
 ! D119  D(34,35,39,40)       -179.7013         estimate D2E/DX2                !
 ! D120  D(34,35,39,41)          0.2985         estimate D2E/DX2                !
 --------------------------------------------------------------------------------
 Trust Radius=3.00D-01 FncErr=5.00D-06 GrdErr=5.00D-06 EigMax=2.50D+02 EigMin=1.00D-04
 Number of steps in this run=    252 maximum allowed number of steps=    252.
 GradGradGradGradGradGradGradGradGradGradGradGradGradGradGradGradGradGrad

 Leave Link  103 at Tue May  7 19:42:51 2024, MaxMem=  2684354560 cpu:               0.5 elap:               0.0
 (Enter /s/ls4/groups/g0130/bin/g16/l202.exe)
                          Input orientation:                          
 ---------------------------------------------------------------------
 Center     Atomic      Atomic             Coordinates (Angstroms)
 Number     Number       Type             X           Y           Z
 ---------------------------------------------------------------------
      1          6           0       -5.543229    1.400945   -1.484777
      2          6           0       -4.627599    0.836543   -0.594322
      3          6           0       -3.683403    1.673371   -0.022703
      4          6           0       -3.634125    3.032509   -0.336889
      5          6           0       -4.540273    3.579987   -1.217095
      6          6           0       -5.506599    2.751876   -1.797365
      7          1           0       -4.657431   -0.221186   -0.369153
      8          1           0       -6.222089    3.164402   -2.496049
      9          1           0       -6.289187    0.765494   -1.945003
     10          1           0       -4.503380    4.635187   -1.462533
     11          7           0       -2.682129    1.354289    0.899967
     12          6           0       -1.691328    2.410642    0.854944
     13          6           0       -2.529422    3.676459    0.470656
     14          6           0       -2.236132   -0.018821    1.017454
     15          1           0       -1.463115   -0.082636    1.781771
     16          1           0       -1.838989   -0.402424    0.070308
     17          6           0       -3.153079    4.320070    1.717219
     18          1           0       -3.667806    3.580934    2.332952
     19          1           0       -3.881593    5.065227    1.397443
     20          1           0       -2.396704    4.822982    2.321824
     21          6           0       -1.715372    4.717111   -0.286548
     22          1           0       -1.362984    4.337345   -1.242742
     23          1           0       -0.852821    5.029456    0.306264
     24          1           0       -2.333507    5.597564   -0.467883
     25          8           0       -0.809678    2.164973   -0.276678
     26          6           0        0.376389    1.557970   -0.136012
     27          6           0       -0.921606    2.503212    2.136357
     28          6           0        0.328596    2.064639    2.252855
     29          6           0        1.018529    1.491141    1.108999
     30          1           0       -1.456439    2.891900    2.990880
     31          1           0        0.849454    2.107790    3.201395
     32          6           0        2.266828    0.894083    1.189919
     33          6           0        0.977656    1.041535   -1.283184
     34          6           0        2.219733    0.448310   -1.195420
     35          6           0        2.846184    0.380677    0.042876
     36          1           0        2.784568    0.832245    2.136793
     37          1           0        0.457140    1.114698   -2.227888
     38          1           0        2.704684    0.038745   -2.068799
     39          7           0        4.158884   -0.248423    0.137606
     40          8           0        4.690483   -0.304427    1.227941
     41          8           0        4.658738   -0.686758   -0.878400
     42          1           0       -3.068927   -0.648489    1.327208
 ---------------------------------------------------------------------
                    Distance matrix (angstroms):
                    1          2          3          4          5
     1  C    0.000000
     2  C    1.396366   0.000000
     3  C    2.381350   1.385112   0.000000
     4  C    2.761219   2.423949   1.395850   0.000000
     5  C    2.413669   2.814597   2.407484   1.376808   0.000000
     6  C    1.387107   2.426613   2.763447   2.391214   1.398666
     7  H    2.158833   1.081842   2.158265   3.410972   3.896363
     8  H    2.143199   3.402630   3.845197   3.372970   2.153356
     9  H    1.082617   2.142489   3.362973   3.843793   3.392628
    10  H    3.397366   3.898578   3.393792   2.142721   1.083996
    11  N    3.724926   2.507152   1.398457   2.291840   3.590039
    12  C    4.618542   3.633160   2.298303   2.362551   3.711765
    13  C    4.252612   3.688041   2.363775   1.512338   2.627038
    14  C    4.383353   3.008086   2.457648   3.619287   4.822208
    15  H    5.433109   4.062593   3.356988   4.348118   5.645963
    16  H    4.403615   3.122998   2.778389   3.897062   4.981359
    17  C    4.948423   4.433102   3.211477   2.471553   3.328998
    18  H    4.779604   4.125751   3.031195   2.725794   3.655685
    19  H    4.949261   4.733436   3.682496   2.683484   3.078247
    20  H    6.008425   5.419640   4.131882   3.435950   4.320170
    21  C    5.204344   4.861543   3.634159   2.553826   3.184185
    22  H    5.114241   4.830504   3.737592   2.771506   3.266406
    23  H    6.194662   5.713188   4.402694   3.483832   4.244865
    24  H    5.380335   5.286414   4.173691   2.878936   3.082491
    25  O    4.944668   4.054891   2.926512   2.955291   4.099266
    26  C    6.073360   5.076455   4.063012   4.277714   5.425021
    27  C    5.973859   4.895791   3.602457   3.708754   5.049736
    28  C    6.992046   5.846239   4.628973   4.831843   6.167878
    29  C    7.056378   5.933680   4.839641   5.110146   6.377638
    30  H    6.241499   5.209071   3.940287   3.979464   5.262181
    31  H    7.957778   6.783926   5.579455   5.785935   7.123172
    32  C    8.270906   7.121794   6.122335   6.459508   7.703533
    33  C    6.533892   5.651144   4.869651   5.111553   6.074178
    34  C    7.826546   6.884620   6.141910   6.456223   7.450205
    35  C    8.588185   7.514737   6.656641   7.012192   8.147568
    36  H    9.098977   7.899318   6.870630   7.222179   8.511870
    37  H    6.052980   5.347941   4.724304   4.898196   5.663346
    38  H    8.380020   7.521498   6.904069   7.220986   8.108958
    39  N    9.974143   8.883420   8.075918   8.468804   9.600378
    40  O   10.723618   9.562902   8.694698   9.104006  10.308915
    41  O   10.431027   9.414733   8.711702   9.104820  10.146015
    42  H    4.269614   2.885664   2.755154   4.079021   5.149596
                    6          7          8          9         10
     6  C    0.000000
     7  H    3.405873   0.000000
     8  H    1.081787   4.293489   0.000000
     9  H    2.140083   2.473755   2.462299   0.000000
    10  H    2.159958   4.980318   2.487031   4.289103   0.000000
    11  N    4.148069   2.827474   5.228838   4.631565   4.434258
    12  C    4.659129   4.150025   5.685518   5.629078   4.269302
    13  C    3.855172   4.519440   4.764381   5.333381   2.924532
    14  C    5.127954   2.797556   6.193986   5.081196   5.740255
    15  H    6.098724   3.853482   7.175711   6.156227   6.482790
    16  H    5.185477   2.858250   6.206449   5.022924   5.901365
    17  C    4.511163   5.219103   5.339103   5.990163   3.468924
    18  H    4.596522   4.768317   5.478787   5.753193   4.026827
    19  H    4.266033   5.627517   4.924463   5.954507   2.958211
    20  H    5.561353   6.147835   6.371527   7.058360   4.335286
    21  C    4.529693   5.748853   5.253885   6.267817   3.026986
    22  H    4.471114   5.691813   5.153394   6.125256   3.162136
    23  H    5.591983   6.519240   6.337225   7.266611   4.075619
    24  H    4.464749   6.266437   5.015457   6.417024   2.573684
    25  O    4.971721   4.528522   5.934531   5.896343   4.599092
    26  C    6.228568   5.344072   7.189598   6.952004   5.919550
    27  C    6.046334   5.258927   7.070465   6.963338   5.506944
    28  C    7.136251   6.079506   8.165357   7.943855   6.615121
    29  C    7.253530   6.110117   8.259705   7.953377   6.854873
    30  H    6.273013   5.588155   7.272694   7.227724   5.670607
    31  H    8.111835   6.964103   9.142430   8.902099   7.536100
    32  C    8.532375   7.184699   9.529031   9.113158   8.177229
    33  C    6.725712   5.846719   7.603547   7.302137   6.556543
    34  C    8.084860   6.958904   8.962877   8.547760   7.924742
    35  C    8.875701   7.538983   9.819819   9.357070   8.624570
    36  H    9.375821   7.922931  10.393366   9.949801   8.973945
    37  H    6.199345   5.603420   6.991802   6.761279   6.130772
    38  H    8.652163   7.560232   9.467817   9.024035   8.570358
    39  N   10.303760   8.830910  11.240468  10.701750  10.071986
    40  O   11.066795   9.483731  12.040976  11.478913  10.778013
    41  O   10.770458   9.341686  11.655069  11.095212  10.611726
    42  H    5.221846   2.362959   6.252828   4.803830   6.144716
                   11         12         13         14         15
    11  N    0.000000
    12  C    1.448998   0.000000
    13  C    2.366452   1.566005   0.000000
    14  C    1.448499   2.495097   3.747012   0.000000
    15  H    2.080464   2.669742   4.121508   1.088948   0.000000
    16  H    2.117844   2.924175   4.156232   1.096340   1.781194
    17  C    3.112161   2.554633   1.535286   4.489592   4.716351
    18  H    2.825411   2.731402   2.184763   4.091266   4.311172
    19  H    3.931571   3.484019   2.148482   5.357189   5.700634
    20  H    3.759651   2.910099   2.181503   5.016993   5.022782
    21  C    3.694727   2.573593   1.522824   4.939702   5.232509
    22  H    3.902559   2.867103   2.175565   4.984682   5.356672
    23  H    4.147975   2.803984   2.160698   5.282465   5.355657
    24  H    4.471905   3.509806   2.147064   5.810291   6.171159
    25  O    2.355372   1.455414   2.408447   2.911787   3.117040
    26  C    3.235626   2.446323   3.646886   3.262211   3.123020
    27  C    2.438878   1.497684   2.595407   3.056235   2.665628
    28  C    3.376295   2.480719   3.733961   3.527726   2.836008
    29  C    3.709083   2.872864   4.215572   3.589037   3.014623
    30  H    2.870275   2.202045   2.849273   3.602031   3.210896
    31  H    4.282104   3.471761   4.618925   4.337386   3.487302
    32  C    4.978759   4.251959   5.591330   4.597802   3.900864
    33  C    4.272937   3.683683   4.724232   4.092154   4.076159
    34  C    5.407375   4.832301   5.979233   4.996975   4.765390
    35  C    5.678449   5.036787   6.319993   5.190312   4.669955
    36  H    5.629125   4.916107   6.253323   5.213891   4.359571
    37  H    4.438006   3.974826   4.771196   4.367015   4.604167
    38  H    6.289833   5.787840   6.861316   5.825800   5.675577
    39  N    7.067485   6.466079   7.762026   6.459341   5.859833
    40  O    7.564015   6.945375   8.279370   6.935696   6.182450
    41  O    7.824117   7.274730   8.516293   7.181897   6.702131
    42  H    2.084051   3.388081   4.441837   1.089026   1.762229
                   16         17         18         19         20
    16  H    0.000000
    17  C    5.171180   0.000000
    18  H    4.932674   1.091052   0.000000
    19  H    5.985710   1.090068   1.767486   0.000000
    20  H    5.717101   1.091132   1.777220   1.765802   0.000000
    21  C    5.133446   2.497944   3.459000   2.765777   2.697967
    22  H    4.941264   3.459206   4.320874   3.720723   3.743067
    23  H    5.525715   2.790198   3.758965   3.219535   2.547290
    24  H    6.044341   2.660518   3.700247   2.481813   2.895934
    25  O    2.787725   3.756540   4.121166   4.544316   4.041767
    26  C    2.965403   4.849825   5.152056   5.725622   4.938756
    27  C    3.681423   2.907941   2.956645   3.983897   2.755294
    28  C    3.943138   4.182814   4.275138   5.240319   3.878206
    29  C    3.581882   5.076916   5.275133   6.071942   4.922999
    30  H    4.419124   2.557434   2.407859   3.625433   2.249626
    31  H    4.830384   4.808038   4.830113   5.863743   4.322437
    32  C    4.448842   6.433570   6.614044   7.432670   6.202095
    33  C    3.442448   6.067468   6.411342   6.854790   6.219464
    34  C    4.335786   7.234714   7.544923   8.078678   7.267754
    35  C    4.750247   7.369762   7.610399   8.309202   7.239859
    36  H    5.212681   6.899029   7.016188   7.931107   6.542614
    37  H    3.585467   6.234738   6.625614   6.897412   6.526536
    38  H    5.041367   8.183952   8.516522   8.981058   8.257764
    39  N    6.000227   8.765335   8.985577   9.719636   8.571213
    40  O    6.632023   9.118488   9.283215  10.116442   8.815618
    41  O    6.572773   9.634835   9.892286  10.545238   9.506731
    42  H    1.775695   4.984553   4.388416   5.771646   5.601619
                   21         22         23         24         25
    21  C    0.000000
    22  H    1.087523   0.000000
    23  H    1.092236   1.771639   0.000000
    24  H    1.090950   1.769315   1.764789   0.000000
    25  O    2.708096   2.441030   2.923516   3.760491   0.000000
    26  C    3.791872   3.460520   3.709148   4.875653   1.339774
    27  C    3.376667   3.870035   3.120237   4.283754   2.439195
    28  C    4.202616   4.499537   3.738329   5.193339   2.775657
    29  C    4.452937   4.393537   4.082402   5.530408   2.390919
    30  H    3.760316   4.474551   3.484345   4.478048   3.409349
    31  H    5.054961   5.442073   4.451478   5.981084   3.853957
    32  C    5.714316   5.563221   5.254937   6.784845   3.637438
    33  C    4.664283   4.042597   4.666959   5.690862   2.338745
    34  C    5.876543   5.287976   5.716864   6.912027   3.601160
    35  C    6.302458   5.918204   5.946693   7.369260   4.080583
    36  H    6.419830   6.396028   5.847906   7.462392   4.529858
    37  H    4.633140   3.829989   4.843888   5.566095   2.552474
    38  H    6.678354   5.975471   6.572972   7.671165   4.481438
    39  N    7.703461   7.309285   7.280222   8.757472   5.539198
    40  O    8.279160   8.018403   7.747775   9.329831   6.213983
    41  O    8.377431   7.850828   8.028438   9.410245   6.196613
    42  H    5.764198   5.862885   6.180009   6.540365   3.948699
                   26         27         28         29         30
    26  C    0.000000
    27  C    2.782433   0.000000
    28  C    2.442475   1.330009   0.000000
    29  C    1.402449   2.417411   1.453723   0.000000
    30  H    3.862135   1.080433   2.101284   3.410142   0.000000
    31  H    3.415316   2.104120   1.082998   2.187913   2.444645
    32  C    2.402623   3.694746   2.501354   1.386101   4.593196
    33  C    1.394356   4.175758   3.737859   2.434411   5.255121
    34  C    2.398251   5.019100   4.252001   2.800131   6.083624
    35  C    2.741880   4.804588   3.749398   2.389576   5.788742
    36  H    3.389933   4.065446   2.750283   2.146951   4.791428
    37  H    2.139849   4.782838   4.582136   3.404657   5.835732
    38  H    3.385952   6.075106   5.331673   3.879559   7.145334
    39  N    4.200618   6.113745   4.949307   3.719075   7.038086
    40  O    4.892882   6.340631   5.068429   4.089188   7.149064
    41  O    4.891672   7.099641   6.010413   4.684456   8.073011
    42  H    4.345075   3.898580   4.445340   4.618758   4.231108
                   31         32         33         34         35
    31  H    0.000000
    32  C    2.743732   0.000000
    33  C    4.611376   2.792839   0.000000
    34  C    4.895255   2.427091   1.379266   0.000000
    35  C    4.116563   1.383817   2.384653   1.389385   0.000000
    36  H    2.550501   1.080948   3.873626   3.401483   2.142942
    37  H    5.533287   3.873635   1.081090   2.148674   3.376787
    38  H    5.958001   3.397436   2.146021   1.079682   2.143855
    39  N    5.088307   2.447971   3.715218   2.454118   1.458739
    40  O    4.946394   2.704067   4.680005   3.541736   2.296777
    41  O    6.242184   3.535285   4.086712   2.708805   2.296414
    42  H    5.144256   5.555957   5.103446   5.961254   6.139808
                   36         37         38         39         40
    36  H    0.000000
    37  H    4.954508   0.000000
    38  H    4.280541   2.496886   0.000000
    39  N    2.655813   4.599627   2.658079   0.000000
    40  O    2.398031   5.646049   3.863892   1.214317   0.000000
    41  O    3.861512   4.766528   2.400361   1.214191   2.140994
    42  H    6.091913   5.308548   6.733480   7.335971   7.767669
                   41         42
    41  O    0.000000
    42  H    8.036354   0.000000
 Stoichiometry    C19H18N2O3
 Framework group  C1[X(C19H18N2O3)]
 Deg. of freedom   120
 Full point group                 C1      NOp   1
 RotChk:  IX=2 Diff= 2.23D-15
 Largest Abelian subgroup         C1      NOp   1
 Largest concise Abelian subgroup C1      NOp   1
                         Standard orientation:                         
 ---------------------------------------------------------------------
 Center     Atomic      Atomic             Coordinates (Angstroms)
 Number     Number       Type             X           Y           Z
 ---------------------------------------------------------------------
      1          6           0        4.492440   -2.225933   -0.356522
      2          6           0        3.379871   -1.824670   -1.098826
      3          6           0        2.715013   -0.678056   -0.696610
      4          6           0        3.129284    0.045293    0.423007
      5          6           0        4.226691   -0.358718    1.149693
      6          6           0        4.915890   -1.509369    0.753115
      7          1           0        3.050881   -2.399683   -1.954108
      8          1           0        5.776316   -1.844560    1.316655
      9          1           0        5.026616   -3.120195   -0.651497
     10          1           0        4.549723    0.201565    2.019624
     11          7           0        1.598110   -0.069991   -1.278388
     12          6           0        1.006119    0.802482   -0.284439
     13          6           0        2.233191    1.253720    0.577565
     14          6           0        0.726617   -0.852740   -2.130416
     15          1           0       -0.080850   -0.221116   -2.497643
     16          1           0        0.299382   -1.711722   -1.599774
     17          6           0        2.935416    2.461693   -0.058660
     18          1           0        3.137308    2.293901   -1.117660
     19          1           0        3.886728    2.619523    0.449614
     20          1           0        2.337945    3.368108    0.050933
     21          6           0        1.856380    1.583062    2.015807
     22          1           0        1.473302    0.712361    2.542910
     23          1           0        1.098273    2.369001    2.039319
     24          1           0        2.736652    1.951077    2.544823
     25          8           0        0.179778   -0.004678    0.600933
     26          6           0       -1.145532   -0.111580    0.436247
     27          6           0        0.213297    1.904721   -0.916546
     28          6           0       -1.116553    1.908215   -0.936806
     29          6           0       -1.866481    0.832557   -0.309207
     30          1           0        0.779074    2.677471   -1.416635
     31          1           0       -1.665418    2.697922   -1.434796
     32          6           0       -3.242851    0.701615   -0.407890
     33          6           0       -1.793165   -1.166141    1.078665
     34          6           0       -3.162943   -1.290744    0.975906
     35          6           0       -3.868839   -0.354688    0.230320
     36          1           0       -3.822422    1.417333   -0.973835
     37          1           0       -1.207493   -1.873035    1.649669
     38          1           0       -3.686939   -2.100036    1.461897
     39          7           0       -5.317337   -0.486463    0.118927
     40          8           0       -5.918870    0.336615   -0.540820
     41          8           0       -5.853961   -1.413173    0.691205
     42          1           0        1.286882   -1.217168   -2.990226
 ---------------------------------------------------------------------
 Rotational constants (GHZ):           0.6052751           0.1309416           0.1237028
 Leave Link  202 at Tue May  7 19:42:51 2024, MaxMem=  2684354560 cpu:               0.6 elap:               0.1
 (Enter /s/ls4/groups/g0130/bin/g16/l301.exe)
 Standard basis: def2TZVP (5D, 7F)
 Ernie: Thresh=  0.10000D-02 Tol=  0.10000D-05 Strict=F.
 AO basis set in the form of general basis input (Overlap normalization):
      1 0
 S   6 1.00       0.000000000000
      0.1357534968D+05  0.6064550360D-03
      0.2035233368D+04  0.4697908888D-02
      0.4632256236D+03  0.2433247765D-01
      0.1312001960D+03  0.9739996831D-01
      0.4285301589D+02  0.3019558425D+00
      0.1558418577D+02  0.6623360914D+00
 S   2 1.00       0.000000000000
      0.6206713851D+01  0.6559530854D+00
      0.2576489653D+01  0.3758563329D+00
 S   1 1.00       0.000000000000
      0.5769633942D+00  0.1000000000D+01
 S   1 1.00       0.000000000000
      0.2297283136D+00  0.1000000000D+01
 S   1 1.00       0.000000000000
      0.9516444003D-01  0.1000000000D+01
 P   4 1.00       0.000000000000
      0.3469723224D+02  0.1132722000D-01
      0.7958262283D+01  0.7616965920D-01
      0.2378082688D+01  0.3019225220D+00
      0.8143320818D+00  0.7278502735D+00
 P   1 1.00       0.000000000000
      0.2888754725D+00  0.1000000000D+01
 P   1 1.00       0.000000000000
      0.1005682367D+00  0.1000000000D+01
 D   1 1.00       0.000000000000
      0.1097000000D+01  0.1000000000D+01
 D   1 1.00       0.000000000000
      0.3180000000D+00  0.1000000000D+01
 F   1 1.00       0.000000000000
      0.7610000000D+00  0.1000000000D+01
 ****
      2 0
 S   6 1.00       0.000000000000
      0.1357534968D+05  0.6064550360D-03
      0.2035233368D+04  0.4697908888D-02
      0.4632256236D+03  0.2433247765D-01
      0.1312001960D+03  0.9739996831D-01
      0.4285301589D+02  0.3019558425D+00
      0.1558418577D+02  0.6623360914D+00
 S   2 1.00       0.000000000000
      0.6206713851D+01  0.6559530854D+00
      0.2576489653D+01  0.3758563329D+00
 S   1 1.00       0.000000000000
      0.5769633942D+00  0.1000000000D+01
 S   1 1.00       0.000000000000
      0.2297283136D+00  0.1000000000D+01
 S   1 1.00       0.000000000000
      0.9516444003D-01  0.1000000000D+01
 P   4 1.00       0.000000000000
      0.3469723224D+02  0.1132722000D-01
      0.7958262283D+01  0.7616965920D-01
      0.2378082688D+01  0.3019225220D+00
      0.8143320818D+00  0.7278502735D+00
 P   1 1.00       0.000000000000
      0.2888754725D+00  0.1000000000D+01
 P   1 1.00       0.000000000000
      0.1005682367D+00  0.1000000000D+01
 D   1 1.00       0.000000000000
      0.1097000000D+01  0.1000000000D+01
 D   1 1.00       0.000000000000
      0.3180000000D+00  0.1000000000D+01
 F   1 1.00       0.000000000000
      0.7610000000D+00  0.1000000000D+01
 ****
      3 0
 S   6 1.00       0.000000000000
      0.1357534968D+05  0.6064550360D-03
      0.2035233368D+04  0.4697908888D-02
      0.4632256236D+03  0.2433247765D-01
      0.1312001960D+03  0.9739996831D-01
      0.4285301589D+02  0.3019558425D+00
      0.1558418577D+02  0.6623360914D+00
 S   2 1.00       0.000000000000
      0.6206713851D+01  0.6559530854D+00
      0.2576489653D+01  0.3758563329D+00
 S   1 1.00       0.000000000000
      0.5769633942D+00  0.1000000000D+01
 S   1 1.00       0.000000000000
      0.2297283136D+00  0.1000000000D+01
 S   1 1.00       0.000000000000
      0.9516444003D-01  0.1000000000D+01
 P   4 1.00       0.000000000000
      0.3469723224D+02  0.1132722000D-01
      0.7958262283D+01  0.7616965920D-01
      0.2378082688D+01  0.3019225220D+00
      0.8143320818D+00  0.7278502735D+00
 P   1 1.00       0.000000000000
      0.2888754725D+00  0.1000000000D+01
 P   1 1.00       0.000000000000
      0.1005682367D+00  0.1000000000D+01
 D   1 1.00       0.000000000000
      0.1097000000D+01  0.1000000000D+01
 D   1 1.00       0.000000000000
      0.3180000000D+00  0.1000000000D+01
 F   1 1.00       0.000000000000
      0.7610000000D+00  0.1000000000D+01
 ****
      4 0
 S   6 1.00       0.000000000000
      0.1357534968D+05  0.6064550360D-03
      0.2035233368D+04  0.4697908888D-02
      0.4632256236D+03  0.2433247765D-01
      0.1312001960D+03  0.9739996831D-01
      0.4285301589D+02  0.3019558425D+00
      0.1558418577D+02  0.6623360914D+00
 S   2 1.00       0.000000000000
      0.6206713851D+01  0.6559530854D+00
      0.2576489653D+01  0.3758563329D+00
 S   1 1.00       0.000000000000
      0.5769633942D+00  0.1000000000D+01
 S   1 1.00       0.000000000000
      0.2297283136D+00  0.1000000000D+01
 S   1 1.00       0.000000000000
      0.9516444003D-01  0.1000000000D+01
 P   4 1.00       0.000000000000
      0.3469723224D+02  0.1132722000D-01
      0.7958262283D+01  0.7616965920D-01
      0.2378082688D+01  0.3019225220D+00
      0.8143320818D+00  0.7278502735D+00
 P   1 1.00       0.000000000000
      0.2888754725D+00  0.1000000000D+01
 P   1 1.00       0.000000000000
      0.1005682367D+00  0.1000000000D+01
 D   1 1.00       0.000000000000
      0.1097000000D+01  0.1000000000D+01
 D   1 1.00       0.000000000000
      0.3180000000D+00  0.1000000000D+01
 F   1 1.00       0.000000000000
      0.7610000000D+00  0.1000000000D+01
 ****
      5 0
 S   6 1.00       0.000000000000
      0.1357534968D+05  0.6064550360D-03
      0.2035233368D+04  0.4697908888D-02
      0.4632256236D+03  0.2433247765D-01
      0.1312001960D+03  0.9739996831D-01
      0.4285301589D+02  0.3019558425D+00
      0.1558418577D+02  0.6623360914D+00
 S   2 1.00       0.000000000000
      0.6206713851D+01  0.6559530854D+00
      0.2576489653D+01  0.3758563329D+00
 S   1 1.00       0.000000000000
      0.5769633942D+00  0.1000000000D+01
 S   1 1.00       0.000000000000
      0.2297283136D+00  0.1000000000D+01
 S   1 1.00       0.000000000000
      0.9516444003D-01  0.1000000000D+01
 P   4 1.00       0.000000000000
      0.3469723224D+02  0.1132722000D-01
      0.7958262283D+01  0.7616965920D-01
      0.2378082688D+01  0.3019225220D+00
      0.8143320818D+00  0.7278502735D+00
 P   1 1.00       0.000000000000
      0.2888754725D+00  0.1000000000D+01
 P   1 1.00       0.000000000000
      0.1005682367D+00  0.1000000000D+01
 D   1 1.00       0.000000000000
      0.1097000000D+01  0.1000000000D+01
 D   1 1.00       0.000000000000
      0.3180000000D+00  0.1000000000D+01
 F   1 1.00       0.000000000000
      0.7610000000D+00  0.1000000000D+01
 ****
      6 0
 S   6 1.00       0.000000000000
      0.1357534968D+05  0.6064550360D-03
      0.2035233368D+04  0.4697908888D-02
      0.4632256236D+03  0.2433247765D-01
      0.1312001960D+03  0.9739996831D-01
      0.4285301589D+02  0.3019558425D+00
      0.1558418577D+02  0.6623360914D+00
 S   2 1.00       0.000000000000
      0.6206713851D+01  0.6559530854D+00
      0.2576489653D+01  0.3758563329D+00
 S   1 1.00       0.000000000000
      0.5769633942D+00  0.1000000000D+01
 S   1 1.00       0.000000000000
      0.2297283136D+00  0.1000000000D+01
 S   1 1.00       0.000000000000
      0.9516444003D-01  0.1000000000D+01
 P   4 1.00       0.000000000000
      0.3469723224D+02  0.1132722000D-01
      0.7958262283D+01  0.7616965920D-01
      0.2378082688D+01  0.3019225220D+00
      0.8143320818D+00  0.7278502735D+00
 P   1 1.00       0.000000000000
      0.2888754725D+00  0.1000000000D+01
 P   1 1.00       0.000000000000
      0.1005682367D+00  0.1000000000D+01
 D   1 1.00       0.000000000000
      0.1097000000D+01  0.1000000000D+01
 D   1 1.00       0.000000000000
      0.3180000000D+00  0.1000000000D+01
 F   1 1.00       0.000000000000
      0.7610000000D+00  0.1000000000D+01
 ****
      7 0
 S   3 1.00       0.000000000000
      0.3406134100D+02  0.2543930721D-01
      0.5123574600D+01  0.1900859489D+00
      0.1164662600D+01  0.8524411301D+00
 S   1 1.00       0.000000000000
      0.3272304100D+00  0.1000000000D+01
 S   1 1.00       0.000000000000
      0.1030724100D+00  0.1000000000D+01
 P   1 1.00       0.000000000000
      0.8000000000D+00  0.1000000000D+01
 ****
      8 0
 S   3 1.00       0.000000000000
      0.3406134100D+02  0.2543930721D-01
      0.5123574600D+01  0.1900859489D+00
      0.1164662600D+01  0.8524411301D+00
 S   1 1.00       0.000000000000
      0.3272304100D+00  0.1000000000D+01
 S   1 1.00       0.000000000000
      0.1030724100D+00  0.1000000000D+01
 P   1 1.00       0.000000000000
      0.8000000000D+00  0.1000000000D+01
 ****
      9 0
 S   3 1.00       0.000000000000
      0.3406134100D+02  0.2543930721D-01
      0.5123574600D+01  0.1900859489D+00
      0.1164662600D+01  0.8524411301D+00
 S   1 1.00       0.000000000000
      0.3272304100D+00  0.1000000000D+01
 S   1 1.00       0.000000000000
      0.1030724100D+00  0.1000000000D+01
 P   1 1.00       0.000000000000
      0.8000000000D+00  0.1000000000D+01
 ****
     10 0
 S   3 1.00       0.000000000000
      0.3406134100D+02  0.2543930721D-01
      0.5123574600D+01  0.1900859489D+00
      0.1164662600D+01  0.8524411301D+00
 S   1 1.00       0.000000000000
      0.3272304100D+00  0.1000000000D+01
 S   1 1.00       0.000000000000
      0.1030724100D+00  0.1000000000D+01
 P   1 1.00       0.000000000000
      0.8000000000D+00  0.1000000000D+01
 ****
     11 0
 S   6 1.00       0.000000000000
      0.1973080065D+05  0.5862640263D-03
      0.2957895874D+04  0.4542882059D-02
      0.6732213360D+03  0.2355841345D-01
      0.1906824949D+03  0.9470919329D-01
      0.6229544190D+02  0.2971978491D+00
      0.2265416118D+02  0.6691624690D+00
 S   2 1.00       0.000000000000
      0.8979147743D+01  0.6459668363D+00
      0.3686300237D+01  0.3870057439D+00
 S   1 1.00       0.000000000000
      0.8466007680D+00  0.1000000000D+01
 S   1 1.00       0.000000000000
      0.3364713377D+00  0.1000000000D+01
 S   1 1.00       0.000000000000
      0.1364765367D+00  0.1000000000D+01
 P   4 1.00       0.000000000000
      0.4920038051D+02  0.1144882510D-01
      0.1134679054D+02  0.7842233797D-01
      0.3427397241D+01  0.3081809474D+00
      0.1178552513D+01  0.7202719637D+00
 P   1 1.00       0.000000000000
      0.4164220497D+00  0.1000000000D+01
 P   1 1.00       0.000000000000
      0.1426082601D+00  0.1000000000D+01
 D   1 1.00       0.000000000000
      0.1654000000D+01  0.1000000000D+01
 D   1 1.00       0.000000000000
      0.4690000000D+00  0.1000000000D+01
 F   1 1.00       0.000000000000
      0.1093000000D+01  0.1000000000D+01
 ****
     12 0
 S   6 1.00       0.000000000000
      0.1357534968D+05  0.6064550360D-03
      0.2035233368D+04  0.4697908888D-02
      0.4632256236D+03  0.2433247765D-01
      0.1312001960D+03  0.9739996831D-01
      0.4285301589D+02  0.3019558425D+00
      0.1558418577D+02  0.6623360914D+00
 S   2 1.00       0.000000000000
      0.6206713851D+01  0.6559530854D+00
      0.2576489653D+01  0.3758563329D+00
 S   1 1.00       0.000000000000
      0.5769633942D+00  0.1000000000D+01
 S   1 1.00       0.000000000000
      0.2297283136D+00  0.1000000000D+01
 S   1 1.00       0.000000000000
      0.9516444003D-01  0.1000000000D+01
 P   4 1.00       0.000000000000
      0.3469723224D+02  0.1132722000D-01
      0.7958262283D+01  0.7616965920D-01
      0.2378082688D+01  0.3019225220D+00
      0.8143320818D+00  0.7278502735D+00
 P   1 1.00       0.000000000000
      0.2888754725D+00  0.1000000000D+01
 P   1 1.00       0.000000000000
      0.1005682367D+00  0.1000000000D+01
 D   1 1.00       0.000000000000
      0.1097000000D+01  0.1000000000D+01
 D   1 1.00       0.000000000000
      0.3180000000D+00  0.1000000000D+01
 F   1 1.00       0.000000000000
      0.7610000000D+00  0.1000000000D+01
 ****
     13 0
 S   6 1.00       0.000000000000
      0.1357534968D+05  0.6064550360D-03
      0.2035233368D+04  0.4697908888D-02
      0.4632256236D+03  0.2433247765D-01
      0.1312001960D+03  0.9739996831D-01
      0.4285301589D+02  0.3019558425D+00
      0.1558418577D+02  0.6623360914D+00
 S   2 1.00       0.000000000000
      0.6206713851D+01  0.6559530854D+00
      0.2576489653D+01  0.3758563329D+00
 S   1 1.00       0.000000000000
      0.5769633942D+00  0.1000000000D+01
 S   1 1.00       0.000000000000
      0.2297283136D+00  0.1000000000D+01
 S   1 1.00       0.000000000000
      0.9516444003D-01  0.1000000000D+01
 P   4 1.00       0.000000000000
      0.3469723224D+02  0.1132722000D-01
      0.7958262283D+01  0.7616965920D-01
      0.2378082688D+01  0.3019225220D+00
      0.8143320818D+00  0.7278502735D+00
 P   1 1.00       0.000000000000
      0.2888754725D+00  0.1000000000D+01
 P   1 1.00       0.000000000000
      0.1005682367D+00  0.1000000000D+01
 D   1 1.00       0.000000000000
      0.1097000000D+01  0.1000000000D+01
 D   1 1.00       0.000000000000
      0.3180000000D+00  0.1000000000D+01
 F   1 1.00       0.000000000000
      0.7610000000D+00  0.1000000000D+01
 ****
     14 0
 S   6 1.00       0.000000000000
      0.1357534968D+05  0.6064550360D-03
      0.2035233368D+04  0.4697908888D-02
      0.4632256236D+03  0.2433247765D-01
      0.1312001960D+03  0.9739996831D-01
      0.4285301589D+02  0.3019558425D+00
      0.1558418577D+02  0.6623360914D+00
 S   2 1.00       0.000000000000
      0.6206713851D+01  0.6559530854D+00
      0.2576489653D+01  0.3758563329D+00
 S   1 1.00       0.000000000000
      0.5769633942D+00  0.1000000000D+01
 S   1 1.00       0.000000000000
      0.2297283136D+00  0.1000000000D+01
 S   1 1.00       0.000000000000
      0.9516444003D-01  0.1000000000D+01
 P   4 1.00       0.000000000000
      0.3469723224D+02  0.1132722000D-01
      0.7958262283D+01  0.7616965920D-01
      0.2378082688D+01  0.3019225220D+00
      0.8143320818D+00  0.7278502735D+00
 P   1 1.00       0.000000000000
      0.2888754725D+00  0.1000000000D+01
 P   1 1.00       0.000000000000
      0.1005682367D+00  0.1000000000D+01
 D   1 1.00       0.000000000000
      0.1097000000D+01  0.1000000000D+01
 D   1 1.00       0.000000000000
      0.3180000000D+00  0.1000000000D+01
 F   1 1.00       0.000000000000
      0.7610000000D+00  0.1000000000D+01
 ****
     15 0
 S   3 1.00       0.000000000000
      0.3406134100D+02  0.2543930721D-01
      0.5123574600D+01  0.1900859489D+00
      0.1164662600D+01  0.8524411301D+00
 S   1 1.00       0.000000000000
      0.3272304100D+00  0.1000000000D+01
 S   1 1.00       0.000000000000
      0.1030724100D+00  0.1000000000D+01
 P   1 1.00       0.000000000000
      0.8000000000D+00  0.1000000000D+01
 ****
     16 0
 S   3 1.00       0.000000000000
      0.3406134100D+02  0.2543930721D-01
      0.5123574600D+01  0.1900859489D+00
      0.1164662600D+01  0.8524411301D+00
 S   1 1.00       0.000000000000
      0.3272304100D+00  0.1000000000D+01
 S   1 1.00       0.000000000000
      0.1030724100D+00  0.1000000000D+01
 P   1 1.00       0.000000000000
      0.8000000000D+00  0.1000000000D+01
 ****
     17 0
 S   6 1.00       0.000000000000
      0.1357534968D+05  0.6064550360D-03
      0.2035233368D+04  0.4697908888D-02
      0.4632256236D+03  0.2433247765D-01
      0.1312001960D+03  0.9739996831D-01
      0.4285301589D+02  0.3019558425D+00
      0.1558418577D+02  0.6623360914D+00
 S   2 1.00       0.000000000000
      0.6206713851D+01  0.6559530854D+00
      0.2576489653D+01  0.3758563329D+00
 S   1 1.00       0.000000000000
      0.5769633942D+00  0.1000000000D+01
 S   1 1.00       0.000000000000
      0.2297283136D+00  0.1000000000D+01
 S   1 1.00       0.000000000000
      0.9516444003D-01  0.1000000000D+01
 P   4 1.00       0.000000000000
      0.3469723224D+02  0.1132722000D-01
      0.7958262283D+01  0.7616965920D-01
      0.2378082688D+01  0.3019225220D+00
      0.8143320818D+00  0.7278502735D+00
 P   1 1.00       0.000000000000
      0.2888754725D+00  0.1000000000D+01
 P   1 1.00       0.000000000000
      0.1005682367D+00  0.1000000000D+01
 D   1 1.00       0.000000000000
      0.1097000000D+01  0.1000000000D+01
 D   1 1.00       0.000000000000
      0.3180000000D+00  0.1000000000D+01
 F   1 1.00       0.000000000000
      0.7610000000D+00  0.1000000000D+01
 ****
     18 0
 S   3 1.00       0.000000000000
      0.3406134100D+02  0.2543930721D-01
      0.5123574600D+01  0.1900859489D+00
      0.1164662600D+01  0.8524411301D+00
 S   1 1.00       0.000000000000
      0.3272304100D+00  0.1000000000D+01
 S   1 1.00       0.000000000000
      0.1030724100D+00  0.1000000000D+01
 P   1 1.00       0.000000000000
      0.8000000000D+00  0.1000000000D+01
 ****
     19 0
 S   3 1.00       0.000000000000
      0.3406134100D+02  0.2543930721D-01
      0.5123574600D+01  0.1900859489D+00
      0.1164662600D+01  0.8524411301D+00
 S   1 1.00       0.000000000000
      0.3272304100D+00  0.1000000000D+01
 S   1 1.00       0.000000000000
      0.1030724100D+00  0.1000000000D+01
 P   1 1.00       0.000000000000
      0.8000000000D+00  0.1000000000D+01
 ****
     20 0
 S   3 1.00       0.000000000000
      0.3406134100D+02  0.2543930721D-01
      0.5123574600D+01  0.1900859489D+00
      0.1164662600D+01  0.8524411301D+00
 S   1 1.00       0.000000000000
      0.3272304100D+00  0.1000000000D+01
 S   1 1.00       0.000000000000
      0.1030724100D+00  0.1000000000D+01
 P   1 1.00       0.000000000000
      0.8000000000D+00  0.1000000000D+01
 ****
     21 0
 S   6 1.00       0.000000000000
      0.1357534968D+05  0.6064550360D-03
      0.2035233368D+04  0.4697908888D-02
      0.4632256236D+03  0.2433247765D-01
      0.1312001960D+03  0.9739996831D-01
      0.4285301589D+02  0.3019558425D+00
      0.1558418577D+02  0.6623360914D+00
 S   2 1.00       0.000000000000
      0.6206713851D+01  0.6559530854D+00
      0.2576489653D+01  0.3758563329D+00
 S   1 1.00       0.000000000000
      0.5769633942D+00  0.1000000000D+01
 S   1 1.00       0.000000000000
      0.2297283136D+00  0.1000000000D+01
 S   1 1.00       0.000000000000
      0.9516444003D-01  0.1000000000D+01
 P   4 1.00       0.000000000000
      0.3469723224D+02  0.1132722000D-01
      0.7958262283D+01  0.7616965920D-01
      0.2378082688D+01  0.3019225220D+00
      0.8143320818D+00  0.7278502735D+00
 P   1 1.00       0.000000000000
      0.2888754725D+00  0.1000000000D+01
 P   1 1.00       0.000000000000
      0.1005682367D+00  0.1000000000D+01
 D   1 1.00       0.000000000000
      0.1097000000D+01  0.1000000000D+01
 D   1 1.00       0.000000000000
      0.3180000000D+00  0.1000000000D+01
 F   1 1.00       0.000000000000
      0.7610000000D+00  0.1000000000D+01
 ****
     22 0
 S   3 1.00       0.000000000000
      0.3406134100D+02  0.2543930721D-01
      0.5123574600D+01  0.1900859489D+00
      0.1164662600D+01  0.8524411301D+00
 S   1 1.00       0.000000000000
      0.3272304100D+00  0.1000000000D+01
 S   1 1.00       0.000000000000
      0.1030724100D+00  0.1000000000D+01
 P   1 1.00       0.000000000000
      0.8000000000D+00  0.1000000000D+01
 ****
     23 0
 S   3 1.00       0.000000000000
      0.3406134100D+02  0.2543930721D-01
      0.5123574600D+01  0.1900859489D+00
      0.1164662600D+01  0.8524411301D+00
 S   1 1.00       0.000000000000
      0.3272304100D+00  0.1000000000D+01
 S   1 1.00       0.000000000000
      0.1030724100D+00  0.1000000000D+01
 P   1 1.00       0.000000000000
      0.8000000000D+00  0.1000000000D+01
 ****
     24 0
 S   3 1.00       0.000000000000
      0.3406134100D+02  0.2543930721D-01
      0.5123574600D+01  0.1900859489D+00
      0.1164662600D+01  0.8524411301D+00
 S   1 1.00       0.000000000000
      0.3272304100D+00  0.1000000000D+01
 S   1 1.00       0.000000000000
      0.1030724100D+00  0.1000000000D+01
 P   1 1.00       0.000000000000
      0.8000000000D+00  0.1000000000D+01
 ****
     25 0
 S   6 1.00       0.000000000000
      0.2703238263D+05  0.5722733521D-03
      0.4052387139D+04  0.4435323349D-02
      0.9223272271D+03  0.2302010771D-01
      0.2612407099D+03  0.9282249067D-01
      0.8535464135D+02  0.2937850001D+00
      0.3103503524D+02  0.6740160450D+00
 S   2 1.00       0.000000000000
      0.1226086073D+02  0.6383993703D+00
      0.4998707601D+01  0.3953458713D+00
 S   1 1.00       0.000000000000
      0.1170310816D+01  0.1000000000D+01
 S   1 1.00       0.000000000000
      0.4647474099D+00  0.1000000000D+01
 S   1 1.00       0.000000000000
      0.1850453636D+00  0.1000000000D+01
 P   4 1.00       0.000000000000
      0.6327495480D+02  0.1201833222D-01
      0.1462704938D+02  0.8300542179D-01
      0.4450122346D+01  0.3199174393D+00
      0.1527579965D+01  0.7071554292D+00
 P   1 1.00       0.000000000000
      0.5293511794D+00  0.1000000000D+01
 P   1 1.00       0.000000000000
      0.1747842127D+00  0.1000000000D+01
 D   1 1.00       0.000000000000
      0.2314000000D+01  0.1000000000D+01
 D   1 1.00       0.000000000000
      0.6450000000D+00  0.1000000000D+01
 F   1 1.00       0.000000000000
      0.1428000000D+01  0.1000000000D+01
 ****
     26 0
 S   6 1.00       0.000000000000
      0.1357534968D+05  0.6064550360D-03
      0.2035233368D+04  0.4697908888D-02
      0.4632256236D+03  0.2433247765D-01
      0.1312001960D+03  0.9739996831D-01
      0.4285301589D+02  0.3019558425D+00
      0.1558418577D+02  0.6623360914D+00
 S   2 1.00       0.000000000000
      0.6206713851D+01  0.6559530854D+00
      0.2576489653D+01  0.3758563329D+00
 S   1 1.00       0.000000000000
      0.5769633942D+00  0.1000000000D+01
 S   1 1.00       0.000000000000
      0.2297283136D+00  0.1000000000D+01
 S   1 1.00       0.000000000000
      0.9516444003D-01  0.1000000000D+01
 P   4 1.00       0.000000000000
      0.3469723224D+02  0.1132722000D-01
      0.7958262283D+01  0.7616965920D-01
      0.2378082688D+01  0.3019225220D+00
      0.8143320818D+00  0.7278502735D+00
 P   1 1.00       0.000000000000
      0.2888754725D+00  0.1000000000D+01
 P   1 1.00       0.000000000000
      0.1005682367D+00  0.1000000000D+01
 D   1 1.00       0.000000000000
      0.1097000000D+01  0.1000000000D+01
 D   1 1.00       0.000000000000
      0.3180000000D+00  0.1000000000D+01
 F   1 1.00       0.000000000000
      0.7610000000D+00  0.1000000000D+01
 ****
     27 0
 S   6 1.00       0.000000000000
      0.1357534968D+05  0.6064550360D-03
      0.2035233368D+04  0.4697908888D-02
      0.4632256236D+03  0.2433247765D-01
      0.1312001960D+03  0.9739996831D-01
      0.4285301589D+02  0.3019558425D+00
      0.1558418577D+02  0.6623360914D+00
 S   2 1.00       0.000000000000
      0.6206713851D+01  0.6559530854D+00
      0.2576489653D+01  0.3758563329D+00
 S   1 1.00       0.000000000000
      0.5769633942D+00  0.1000000000D+01
 S   1 1.00       0.000000000000
      0.2297283136D+00  0.1000000000D+01
 S   1 1.00       0.000000000000
      0.9516444003D-01  0.1000000000D+01
 P   4 1.00       0.000000000000
      0.3469723224D+02  0.1132722000D-01
      0.7958262283D+01  0.7616965920D-01
      0.2378082688D+01  0.3019225220D+00
      0.8143320818D+00  0.7278502735D+00
 P   1 1.00       0.000000000000
      0.2888754725D+00  0.1000000000D+01
 P   1 1.00       0.000000000000
      0.1005682367D+00  0.1000000000D+01
 D   1 1.00       0.000000000000
      0.1097000000D+01  0.1000000000D+01
 D   1 1.00       0.000000000000
      0.3180000000D+00  0.1000000000D+01
 F   1 1.00       0.000000000000
      0.7610000000D+00  0.1000000000D+01
 ****
     28 0
 S   6 1.00       0.000000000000
      0.1357534968D+05  0.6064550360D-03
      0.2035233368D+04  0.4697908888D-02
      0.4632256236D+03  0.2433247765D-01
      0.1312001960D+03  0.9739996831D-01
      0.4285301589D+02  0.3019558425D+00
      0.1558418577D+02  0.6623360914D+00
 S   2 1.00       0.000000000000
      0.6206713851D+01  0.6559530854D+00
      0.2576489653D+01  0.3758563329D+00
 S   1 1.00       0.000000000000
      0.5769633942D+00  0.1000000000D+01
 S   1 1.00       0.000000000000
      0.2297283136D+00  0.1000000000D+01
 S   1 1.00       0.000000000000
      0.9516444003D-01  0.1000000000D+01
 P   4 1.00       0.000000000000
      0.3469723224D+02  0.1132722000D-01
      0.7958262283D+01  0.7616965920D-01
      0.2378082688D+01  0.3019225220D+00
      0.8143320818D+00  0.7278502735D+00
 P   1 1.00       0.000000000000
      0.2888754725D+00  0.1000000000D+01
 P   1 1.00       0.000000000000
      0.1005682367D+00  0.1000000000D+01
 D   1 1.00       0.000000000000
      0.1097000000D+01  0.1000000000D+01
 D   1 1.00       0.000000000000
      0.3180000000D+00  0.1000000000D+01
 F   1 1.00       0.000000000000
      0.7610000000D+00  0.1000000000D+01
 ****
     29 0
 S   6 1.00       0.000000000000
      0.1357534968D+05  0.6064550360D-03
      0.2035233368D+04  0.4697908888D-02
      0.4632256236D+03  0.2433247765D-01
      0.1312001960D+03  0.9739996831D-01
      0.4285301589D+02  0.3019558425D+00
      0.1558418577D+02  0.6623360914D+00
 S   2 1.00       0.000000000000
      0.6206713851D+01  0.6559530854D+00
      0.2576489653D+01  0.3758563329D+00
 S   1 1.00       0.000000000000
      0.5769633942D+00  0.1000000000D+01
 S   1 1.00       0.000000000000
      0.2297283136D+00  0.1000000000D+01
 S   1 1.00       0.000000000000
      0.9516444003D-01  0.1000000000D+01
 P   4 1.00       0.000000000000
      0.3469723224D+02  0.1132722000D-01
      0.7958262283D+01  0.7616965920D-01
      0.2378082688D+01  0.3019225220D+00
      0.8143320818D+00  0.7278502735D+00
 P   1 1.00       0.000000000000
      0.2888754725D+00  0.1000000000D+01
 P   1 1.00       0.000000000000
      0.1005682367D+00  0.1000000000D+01
 D   1 1.00       0.000000000000
      0.1097000000D+01  0.1000000000D+01
 D   1 1.00       0.000000000000
      0.3180000000D+00  0.1000000000D+01
 F   1 1.00       0.000000000000
      0.7610000000D+00  0.1000000000D+01
 ****
     30 0
 S   3 1.00       0.000000000000
      0.3406134100D+02  0.2543930721D-01
      0.5123574600D+01  0.1900859489D+00
      0.1164662600D+01  0.8524411301D+00
 S   1 1.00       0.000000000000
      0.3272304100D+00  0.1000000000D+01
 S   1 1.00       0.000000000000
      0.1030724100D+00  0.1000000000D+01
 P   1 1.00       0.000000000000
      0.8000000000D+00  0.1000000000D+01
 ****
     31 0
 S   3 1.00       0.000000000000
      0.3406134100D+02  0.2543930721D-01
      0.5123574600D+01  0.1900859489D+00
      0.1164662600D+01  0.8524411301D+00
 S   1 1.00       0.000000000000
      0.3272304100D+00  0.1000000000D+01
 S   1 1.00       0.000000000000
      0.1030724100D+00  0.1000000000D+01
 P   1 1.00       0.000000000000
      0.8000000000D+00  0.1000000000D+01
 ****
     32 0
 S   6 1.00       0.000000000000
      0.1357534968D+05  0.6064550360D-03
      0.2035233368D+04  0.4697908888D-02
      0.4632256236D+03  0.2433247765D-01
      0.1312001960D+03  0.9739996831D-01
      0.4285301589D+02  0.3019558425D+00
      0.1558418577D+02  0.6623360914D+00
 S   2 1.00       0.000000000000
      0.6206713851D+01  0.6559530854D+00
      0.2576489653D+01  0.3758563329D+00
 S   1 1.00       0.000000000000
[...]
                 (A) (A) (A) (A) (A) (A) (A) (A) (A) (A) (A) (A)
                 (A) (A) (A) (A) (A) (A) (A) (A) (A) (A) (A) (A)
                 (A) (A) (A) (A) (A) (A) (A) (A) (A) (A) (A) (A)
                 (A) (A) (A) (A) (A) (A) (A) (A) (A) (A) (A) (A)
                 (A) (A) (A) (A) (A) (A) (A) (A) (A) (A) (A) (A)
                 (A) (A) (A) (A) (A) (A) (A) (A) (A) (A) (A) (A)
                 (A) (A) (A) (A) (A) (A) (A) (A) (A) (A) (A) (A)
                 (A) (A) (A) (A) (A) (A) (A) (A) (A) (A) (A) (A)
                 (A) (A) (A) (A) (A) (A) (A) (A) (A) (A) (A) (A)
                 (A) (A) (A) (A) (A) (A) (A) (A) (A) (A) (A) (A)
                 (A) (A) (A) (A) (A) (A) (A) (A) (A) (A) (A) (A)
                 (A) (A) (A) (A) (A) (A) (A) (A) (A) (A) (A) (A)
                 (A) (A) (A) (A) (A) (A) (A) (A) (A) (A) (A) (A)
                 (A) (A) (A) (A) (A) (A) (A) (A) (A) (A) (A) (A)
                 (A) (A) (A) (A) (A) (A) (A) (A) (A) (A) (A) (A)
                 (A) (A) (A) (A) (A) (A) (A) (A) (A) (A) (A) (A)
                 (A) (A) (A) (A) (A) (A) (A) (A) (A) (A) (A) (A)
                 (A) (A) (A) (A) (A) (A) (A) (A) (A) (A) (A) (A)
                 (A) (A) (A) (A) (A) (A) (A) (A) (A) (A) (A) (A)
                 (A) (A) (A) (A) (A) (A) (A) (A) (A) (A) (A) (A)
                 (A) (A) (A) (A) (A) (A) (A) (A) (A) (A) (A) (A)
                 (A) (A) (A) (A) (A) (A) (A) (A) (A) (A) (A) (A)
                 (A) (A) (A) (A) (A) (A) (A) (A) (A) (A) (A) (A)
                 (A) (A) (A) (A) (A) (A) (A) (A) (A) (A) (A) (A)
                 (A) (A) (A) (A) (A) (A) (A) (A) (A) (A) (A) (A)
                 (A) (A) (A) (A) (A) (A) (A) (A) (A) (A) (A) (A)
                 (A) (A) (A) (A) (A) (A) (A) (A) (A) (A) (A) (A)
                 (A) (A) (A) (A) (A) (A) (A) (A) (A) (A) (A) (A)
                 (A) (A) (A) (A) (A) (A) (A) (A) (A) (A) (A) (A)
                 (A) (A) (A) (A) (A) (A) (A) (A) (A) (A) (A) (A)
                 (A) (A) (A) (A) (A) (A) (A) (A) (A) (A) (A) (A)
                 (A) (A) (A) (A) (A) (A) (A) (A) (A) (A) (A) (A)
                 (A) (A) (A) (A) (A) (A) (A) (A) (A) (A) (A) (A)
                 (A) (A) (A) (A) (A) (A) (A) (A) (A) (A) (A) (A)
                 (A) (A) (A) (A) (A) (A) (A) (A) (A) (A) (A) (A)
                 (A) (A) (A) (A) (A) (A) (A) (A) (A) (A) (A) (A)
                 (A) (A) (A) (A) (A) (A) (A) (A) (A) (A) (A) (A)
                 (A) (A) (A) (A) (A) (A) (A) (A) (A) (A) (A) (A)
                 (A) (A) (A) (A) (A) (A) (A) (A) (A) (A) (A) (A)
                 (A) (A) (A) (A) (A) (A) (A) (A) (A) (A) (A) (A)
                 (A) (A) (A) (A) (A) (A) (A) (A) (A) (A) (A) (A)
                 (A) (A) (A) (A) (A) (A) (A) (A) (A) (A) (A) (A)
                 (A) (A) (A) (A) (A) (A) (A) (A) (A) (A) (A) (A)
                 (A) (A) (A) (A) (A) (A) (A) (A) (A) (A) (A) (A)
                 (A) (A) (A) (A) (A) (A) (A) (A) (A) (A) (A) (A)
                 (A) (A) (A) (A) (A) (A) (A) (A) (A) (A) (A) (A)
                 (A) (A) (A) (A) (A) (A) (A) (A) (A) (A) (A) (A)
                 (A) (A) (A) (A) (A) (A) (A) (A) (A) (A) (A)
 Generating guess from densities on rwf.
 Convergence on wavefunction:    0.000001000000000
 Davidson Disk Diagonalization:  ConvIn= 1.00D-06 SkipCon=T Conv= 1.00D-06.
 Max sub-space:  2000 roots to seek:     5 dimension of matrix:        93574
 Iteration     1 Dimension    10 NMult     0 NNew     10
 CISAX will form    10 AO SS matrices at one time.
 NMat=    10 NSing=    10 JSym2X= 0.
 FoFJK:  IHMeth= 1 ICntrl=       0 DoSepK=F KAlg= 0 I1Cent=           0 FoldK=F
 IRaf= 790000000 NMat=      20 IRICut=       1 DoRegI=T DoRafI=F ISym2E= 0 IDoP0=3 IntGTp=3.
 FoFCou: FMM=F IPFlag=           0 FMFlag=      100000 FMFlg1=           0
         NFxFlg=           0 DoJE=F BraDBF=F KetDBF=F FulRan=T
         wScrn=  0.000000 ICntrl=         0 IOpCl=  0 I1Cent=           0 NGrid=           0
         NMat0=   20 NMatS0=     10 NMatT0=    0 NMatD0=   20 NMtDS0=    0 NMtDT0=    0
 Symmetry not used in FoFCou.
 Excitation Energies [eV] at current iteration:
 Root      1 :     2.482924780760209
 Root      2 :     3.613653864993654
 Root      3 :     3.792218860357133
 Root      4 :     4.334393768683691
 Root      5 :     4.506276562723300
 Iteration     2 Dimension    20 NMult    10 NNew     10
 CISAX will form    10 AO SS matrices at one time.
 NMat=    10 NSing=    10 JSym2X= 0.
 Root      1 not converged, maximum delta is    0.004192882498199
 Root      2 not converged, maximum delta is    0.001442043057494
 Root      3 not converged, maximum delta is    0.001346414081398
 Root      4 not converged, maximum delta is    0.002226037534357
 Root      5 not converged, maximum delta is    0.013182178052093
 Excitation Energies [eV] at current iteration:
 Root      1 :     2.481807980691013   Change is   -0.001116800069196
 Root      2 :     3.613518681480411   Change is   -0.000135183513243
 Root      3 :     3.792082939448496   Change is   -0.000135920908638
 Root      4 :     4.334203201773118   Change is   -0.000190566910574
 Root      5 :     4.504965343278860   Change is   -0.001311219444439
 Iteration     3 Dimension    30 NMult    20 NNew     10
 CISAX will form    10 AO SS matrices at one time.
 NMat=    10 NSing=    10 JSym2X= 0.
 Root      1 not converged, maximum delta is    0.000674617968208
 Root      2 not converged, maximum delta is    0.000771739765344
 Root      3 not converged, maximum delta is    0.000646315750169
 Root      4 not converged, maximum delta is    0.004223705131761
 Root      5 not converged, maximum delta is    0.114922984823601
 Excitation Energies [eV] at current iteration:
 Root      1 :     2.481752589925066   Change is   -0.000055390765947
 Root      2 :     3.613504044175031   Change is   -0.000014637305380
 Root      3 :     3.792064959879355   Change is   -0.000017979569140
 Root      4 :     4.334100445062838   Change is   -0.000102756710280
 Root      5 :     4.500139095897044   Change is   -0.004826247381816
 Iteration     4 Dimension    40 NMult    30 NNew     10
 CISAX will form    10 AO SS matrices at one time.
 NMat=    10 NSing=    10 JSym2X= 0.
 Root      1 not converged, maximum delta is    0.000098799080293
 Root      2 not converged, maximum delta is    0.000198204184316
 Root      3 not converged, maximum delta is    0.000308700761860
 Root      4 not converged, maximum delta is    0.002965378030210
 Root      5 not converged, maximum delta is    0.194824808170305
 Excitation Energies [eV] at current iteration:
 Root      1 :     2.481749679755492   Change is   -0.000002910169574
 Root      2 :     3.613502593075502   Change is   -0.000001451099529
 Root      3 :     3.792062802707059   Change is   -0.000002157172297
 Root      4 :     4.334061320720834   Change is   -0.000039124342003
 Root      5 :     4.492164020636516   Change is   -0.007975075260528
 Iteration     5 Dimension    50 NMult    40 NNew     10
 CISAX will form    10 AO SS matrices at one time.
 NMat=    10 NSing=    10 JSym2X= 0.
 Root      1 not converged, maximum delta is    0.000015794713111
 Root      2 not converged, maximum delta is    0.000038143641641
 Root      3 not converged, maximum delta is    0.000169529181637
 Root      4 not converged, maximum delta is    0.000788200414790
 Root      5 not converged, maximum delta is    0.039151483842990
 Excitation Energies [eV] at current iteration:
 Root      1 :     2.481749521778873   Change is   -0.000000157976619
 Root      2 :     3.613502445248746   Change is   -0.000000147826756
 Root      3 :     3.792062401160151   Change is   -0.000000401546908
 Root      4 :     4.334053996234306   Change is   -0.000007324486528
 Root      5 :     4.490183332247169   Change is   -0.001980688389347
 Iteration     6 Dimension    60 NMult    50 NNew     10
 CISAX will form    10 AO SS matrices at one time.
 NMat=    10 NSing=    10 JSym2X= 0.
 Root      1 not converged, maximum delta is    0.000005016130476
 Root      2 not converged, maximum delta is    0.000008340811571
 Root      3 not converged, maximum delta is    0.000062373334903
 Root      4 not converged, maximum delta is    0.000153997797501
 Root      5 not converged, maximum delta is    0.005719531569865
 Excitation Energies [eV] at current iteration:
 Root      1 :     2.481749504624123   Change is   -0.000000017154750
 Root      2 :     3.613502431652404   Change is   -0.000000013596343
 Root      3 :     3.792062329380014   Change is   -0.000000071780137
 Root      4 :     4.334053012857930   Change is   -0.000000983376376
 Root      5 :     4.489863211554765   Change is   -0.000320120692405
 Iteration     7 Dimension    70 NMult    60 NNew     10
 CISAX will form    10 AO SS matrices at one time.
 NMat=    10 NSing=    10 JSym2X= 0.
 Root      1 not converged, maximum delta is    0.000001127774166
 Root      2 not converged, maximum delta is    0.000002999610250
 Root      3 not converged, maximum delta is    0.000017011532411
 Root      4 not converged, maximum delta is    0.000050680991828
 Root      5 not converged, maximum delta is    0.003673290463703
 Excitation Energies [eV] at current iteration:
 Root      1 :     2.481749503752377   Change is   -0.000000000871746
 Root      2 :     3.613502430344137   Change is   -0.000000001308266
 Root      3 :     3.792062319311384   Change is   -0.000000010068629
 Root      4 :     4.334052875497203   Change is   -0.000000137360726
 Root      5 :     4.489776353559439   Change is   -0.000086857995325
 Iteration     8 Dimension    80 NMult    70 NNew     10
 CISAX will form    10 AO SS matrices at one time.
 NMat=    10 NSing=    10 JSym2X= 0.
 Root      1 has converged.
 Root      2 has converged.
 Root      3 not converged, maximum delta is    0.000007735234080
 Root      4 not converged, maximum delta is    0.000010980694975
 Root      5 not converged, maximum delta is    0.002148602320333
 Excitation Energies [eV] at current iteration:
 Root      1 :     2.481749503682450   Change is   -0.000000000069926
 Root      2 :     3.613502430231478   Change is   -0.000000000112659
 Root      3 :     3.792062317866554   Change is   -0.000000001444830
 Root      4 :     4.334052861348123   Change is   -0.000000014149080
 Root      5 :     4.489753594463941   Change is   -0.000022759095499
 Iteration     9 Dimension    86 NMult    80 NNew      6
 CISAX will form     6 AO SS matrices at one time.
 NMat=     6 NSing=     6 JSym2X= 0.
 Root      1 has converged.
 Root      2 has converged.
 Root      3 not converged, maximum delta is    0.000001220401959
 Root      4 not converged, maximum delta is    0.000003137537067
 Root      5 not converged, maximum delta is    0.000584692713306
 Excitation Energies [eV] at current iteration:
 Root      1 :     2.481749503681987   Change is   -0.000000000000464
 Root      2 :     3.613502430225609   Change is   -0.000000000005869
 Root      3 :     3.792062317737652   Change is   -0.000000000128902
 Root      4 :     4.334052859748093   Change is   -0.000000001600031
 Root      5 :     4.489750173108407   Change is   -0.000003421355534
 Iteration    10 Dimension    92 NMult    86 NNew      6
 CISAX will form     6 AO SS matrices at one time.
 NMat=     6 NSing=     6 JSym2X= 0.
 Root      1 has converged.
 Root      2 has converged.
 Root      3 has converged.
 Root      4 not converged, maximum delta is    0.000001159707990
 Root      5 not converged, maximum delta is    0.000099700850076
 Excitation Energies [eV] at current iteration:
 Root      1 :     2.481749503681788   Change is   -0.000000000000199
 Root      2 :     3.613502430224221   Change is   -0.000000000001388
 Root      3 :     3.792062317720374   Change is   -0.000000000017278
 Root      4 :     4.334052859605076   Change is   -0.000000000143017
 Root      5 :     4.489749777811347   Change is   -0.000000395297060
 Iteration    11 Dimension    96 NMult    92 NNew      4
 CISAX will form     4 AO SS matrices at one time.
 NMat=     4 NSing=     4 JSym2X= 0.
 Root      1 has converged.
 Root      2 has converged.
 Root      3 has converged.
 Root      4 has converged.
 Root      5 not converged, maximum delta is    0.000034212998676
 Excitation Energies [eV] at current iteration:
 Root      1 :     2.481749503681755   Change is   -0.000000000000033
 Root      2 :     3.613502430222310   Change is   -0.000000000001911
 Root      3 :     3.792062317718532   Change is   -0.000000000001843
 Root      4 :     4.334052859585653   Change is   -0.000000000019423
 Root      5 :     4.489749729756544   Change is   -0.000000048054803
 Iteration    12 Dimension    98 NMult    96 NNew      2
 CISAX will form     2 AO SS matrices at one time.
 NMat=     2 NSing=     2 JSym2X= 0.
 Root      1 has converged.
 Root      2 has converged.
 Root      3 has converged.
 Root      4 has converged.
 Root      5 not converged, maximum delta is    0.000010504833503
 Excitation Energies [eV] at current iteration:
 Root      1 :     2.481749503681688   Change is   -0.000000000000066
 Root      2 :     3.613502430221127   Change is   -0.000000000001184
 Root      3 :     3.792062317717902   Change is   -0.000000000000629
 Root      4 :     4.334052859585274   Change is   -0.000000000000379
 Root      5 :     4.489749725033065   Change is   -0.000000004723479
 Iteration    13 Dimension   100 NMult    98 NNew      2
 CISAX will form     2 AO SS matrices at one time.
 NMat=     2 NSing=     2 JSym2X= 0.
 Root      1 has converged.
 Root      2 has converged.
 Root      3 has converged.
 Root      4 has converged.
 Root      5 not converged, maximum delta is    0.000004080003040
 Excitation Energies [eV] at current iteration:
 Root      1 :     2.481749503681755   Change is    0.000000000000066
 Root      2 :     3.613502430219421   Change is   -0.000000000001706
 Root      3 :     3.792062317717881   Change is   -0.000000000000021
 Root      4 :     4.334052859584970   Change is   -0.000000000000304
 Root      5 :     4.489749724426674   Change is   -0.000000000606392
 Iteration    14 Dimension   102 NMult   100 NNew      2
 CISAX will form     2 AO SS matrices at one time.
 NMat=     2 NSing=     2 JSym2X= 0.
 Root      1 has converged.
 Root      2 has converged.
 Root      3 has converged.
 Root      4 has converged.
 Root      5 has converged.
 Excitation Energies [eV] at current iteration:
 Root      1 :     2.481749503681721   Change is   -0.000000000000033
 Root      2 :     3.613502430218920   Change is   -0.000000000000500
 Root      3 :     3.792062317717686   Change is   -0.000000000000196
 Root      4 :     4.334052859584800   Change is   -0.000000000000171
 Root      5 :     4.489749724359640   Change is   -0.000000000067033
 Convergence achieved on expansion vectors.
 ***********************************************************************
 Excited states from <AA,BB:AA,BB> singles matrix:
 ***********************************************************************
 
 1PDM for each excited state written to RWF  633
 Ground to excited state transition densities written to RWF  633
 Ground to excited state transition electric dipole moments (Au):
       state          X           Y           Z        Dip. S.      Osc.
         1        -0.0041     -0.0005     -0.0007      0.0000      0.0000
         2         2.0032      0.0624      0.0144      4.0168      0.3556
         3         1.5271     -0.0293      0.2388      2.3898      0.2220
         4         1.3014      0.2269     -0.0178      1.7455      0.1853
         5        -0.0180     -0.0194     -0.0533      0.0035      0.0004
 Ground to excited state transition velocity dipole moments (Au):
       state          X           Y           Z        Dip. S.      Osc.
         1         0.0004      0.0001      0.0001      0.0000      0.0000
         2        -0.2752     -0.0086     -0.0016      0.0758      0.3806
         3        -0.2203      0.0041     -0.0345      0.0497      0.2379
         4        -0.2140     -0.0376      0.0029      0.0472      0.1976
         5         0.0035      0.0008      0.0056      0.0000      0.0002
 Ground to excited state transition magnetic dipole moments (Au):
       state          X           Y           Z
         1         0.7665      0.0767      0.0598
         2         0.1491     -0.1739     -0.0026
         3        -0.0530     -0.3122     -0.0432
         4         0.0397     -0.4380     -0.2639
         5        -0.0453      0.9380     -0.6630
 Ground to excited state transition velocity quadrupole moments (Au):
       state          XX          YY          ZZ          XY          XZ          YZ
         1        -0.0063      0.0249     -0.0250     -0.0034      0.0005      0.0084
         2         2.1539     -0.0811     -0.1286      0.3278     -0.0370     -0.0550
         3         2.5985     -0.1150     -0.1177      0.0827      0.1172      0.0316
         4         2.3762     -0.0061     -0.0364      0.4248     -0.0890     -0.0655
         5         0.0358     -0.0163     -0.0045     -0.0862     -0.0959     -0.0077
 <0|del|b> * <b|rxdel|0> + <0|del|b> * <b|delr+rdel|0>
 Rotatory Strengths (R) in cgs (10**-40 erg-esu-cm/Gauss)
       state          XX          YY          ZZ    R(velocity)    E-M Angle
         1         0.0561      1.2406      1.2200      0.8389       90.00
         2         1.7457    -67.5337   -144.6841    -70.1574      128.81
         3        -7.8799     22.9613     45.2942     20.1252       80.39
         4        30.1418      7.8040     -6.0406     10.6351       86.30
         5        -7.3079     -7.3114      1.0768     -4.5142      114.43
 1/2[<0|r|b>*<b|rxdel|0> + (<0|rxdel|b>*<b|r|0>)*]
 Rotatory Strengths (R) in cgs (10**-40 erg-esu-cm/Gauss)
       state          XX          YY          ZZ     R(length)
         1         2.2243      0.0274      0.0298      0.7605
         2      -211.1938      7.6707      0.0267    -67.8322
         3        57.2375     -6.4721      7.2871     19.3508
         4       -36.4992     70.2627     -3.3204     10.1477
         5        -0.5776     12.8886    -25.0051     -4.2314
  1/2[<0|del|b>*<b|r|0> + (<0|r|b>*<b|del|0>)*] (Au)
       state          X           Y           Z        Dip. S.   Osc.(frdel)
         1        -0.0000     -0.0000     -0.0000      0.0000      0.0000
         2        -0.5513     -0.0005     -0.0000      0.5518      0.3679
         3        -0.3364     -0.0001     -0.0082      0.3447      0.2298
         4        -0.2785     -0.0085     -0.0001      0.2870      0.1914
         5        -0.0001     -0.0000     -0.0003      0.0004      0.0003

 Excitation energies and oscillator strengths:
 
 Excited State   1:      Singlet-A      2.4817 eV  499.58 nm  f=0.0000  <S**2>=0.000
      81 -> 86        -0.67600
      81 -> 89         0.15189
      81 -> 92        -0.11356
 This state for optimization and/or second-order correction.
 Total Energy, E(TD-HF/TD-DFT) =  -1069.79689545    
 Copying the excited state density for this state as the 1-particle RhoCI density.
 
 Excited State   2:      Singlet-A      3.6135 eV  343.11 nm  f=0.3556  <S**2>=0.000
      82 -> 86        -0.13574
      84 -> 86         0.29346
      85 -> 86        -0.61651
 
 Excited State   3:      Singlet-A      3.7921 eV  326.96 nm  f=0.2220  <S**2>=0.000
      83 -> 86         0.11891
      84 -> 86         0.61227
      85 -> 86         0.29277
 
 Excited State   4:      Singlet-A      4.3341 eV  286.07 nm  f=0.1853  <S**2>=0.000
      82 -> 86        -0.63395
      84 -> 87         0.16186
      85 -> 86         0.14997
 
 Excited State   5:      Singlet-A      4.4897 eV  276.15 nm  f=0.0004  <S**2>=0.000
      73 -> 86         0.66609
      73 -> 89        -0.14521
      73 -> 92         0.10766
 SavETr:  write IOETrn=   770 NScale= 10 NData=  16 NLR=1 NState=    5 LETran=     100.
 The selected state is a singlet.
 CISGrd: IGrad=2 NXY=2 DFT=T
 CISAX will form     1 AO SS matrices at one time.
 NMat=     1 NSing=     1 JSym2X= 0.
