 Entering Gaussian System, Link 0=/s/ls4/groups/g0130/bin/g16/g16
 Input=sp1_s1_pbe0.gjf
 Output=sp1_s1_pbe0.log
 Initial command:
 /s/ls4/groups/g0130/bin/g16/l1.exe "/dev/shm/scratch_artd/Gau-16428.inp" -scrdir="/dev/shm/scratch_artd/"
 Entering Link 1 = /s/ls4/groups/g0130/bin/g16/l1.exe PID=     16429.
  
 Copyright (c) 1988,1990,1992,1993,1995,1998,2003,2009,2016,
            Gaussian, Inc.  All Rights Reserved.
  
 This is part of the Gaussian(R) 16 program.  It is based on
 the Gaussian(R) 09 system (copyright 2009, Gaussian, Inc.),
 the Gaussian(R) 03 system (copyright 2003, Gaussian, Inc.),
 the Gaussian(R) 98 system (copyright 1998, Gaussian, Inc.),
 the Gaussian(R) 94 system (copyright 1995, Gaussian, Inc.),
 the Gaussian 92(TM) system (copyright 1992, Gaussian, Inc.),
 the Gaussian 90(TM) system (copyright 1990, Gaussian, Inc.),
 the Gaussian 88(TM) system (copyright 1988, Gaussian, Inc.),
 the Gaussian 86(TM) system (copyright 1986, Carnegie Mellon
 University), and the Gaussian 82(TM) system (copyright 1983,
 Carnegie Mellon University). Gaussian is a federally registered
 trademark of Gaussian, Inc.
  
 This software contains proprietary and confidential information,
 including trade secrets, belonging to Gaussian, Inc.
  
 This software is provided under written license and may be
 used, copied, transmitted, or stored only in accord with that
 written license.
  
 The following legend is applicable only to US Government
 contracts under FAR:
  
                    RESTRICTED RIGHTS LEGEND
  
 Use, reproduction and disclosure by the US Government is
 subject to restrictions as set forth in subparagraphs (a)
 and (c) of the Commercial Computer Software - Restricted
 Rights clause in FAR 52.227-19.
  
 Gaussian, Inc.
 340 Quinnipiac St., Bldg. 40, Wallingford CT 06492
  
  
 ---------------------------------------------------------------
 Warning -- This program may not be used in any manner that
 competes with the business of Gaussian, Inc. or will provide
 assistance to any competitor of Gaussian, Inc.  The licensee
 of this program is prohibited from giving any competitor of
 Gaussian, Inc. access to this program.  By using this program,
 the user acknowledges that Gaussian, Inc. is engaged in the
 business of creating and licensing software in the field of
 computational chemistry and represents and warrants to the
 licensee that it is not a competitor of Gaussian, Inc. and that
 it will not use this program in any manner prohibited above.
 ---------------------------------------------------------------
  

 Cite this work as:
 Gaussian 16, Revision A.03,
 M. J. Frisch, G. W. Trucks, H. B. Schlegel, G. E. Scuseria, 
 M. A. Robb, J. R. Cheeseman, G. Scalmani, V. Barone, 
 G. A. Petersson, H. Nakatsuji, X. Li, M. Caricato, A. V. Marenich, 
 J. Bloino, B. G. Janesko, R. Gomperts, B. Mennucci, H. P. Hratchian, 
 J. V. Ortiz, A. F. Izmaylov, J. L. Sonnenberg, D. Williams-Young, 
 F. Ding, F. Lipparini, F. Egidi, J. Goings, B. Peng, A. Petrone, 
 T. Henderson, D. Ranasinghe, V. G. Zakrzewski, J. Gao, N. Rega, 
 G. Zheng, W. Liang, M. Hada, M. Ehara, K. Toyota, R. Fukuda, 
 J. Hasegawa, M. Ishida, T. Nakajima, Y. Honda, O. Kitao, H. Nakai, 
 T. Vreven, K. Throssell, J. A. Montgomery, Jr., J. E. Peralta, 
 F. Ogliaro, M. J. Bearpark, J. J. Heyd, E. N. Brothers, K. N. Kudin, 
 V. N. Staroverov, T. A. Keith, R. Kobayashi, J. Normand, 
 K. Raghavachari, A. P. Rendell, J. C. Burant, S. S. Iyengar, 
 J. Tomasi, M. Cossi, J. M. Millam, M. Klene, C. Adamo, R. Cammi, 
 J. W. Ochterski, R. L. Martin, K. Morokuma, O. Farkas, 
 J. B. Foresman, and D. J. Fox, Gaussian, Inc., Wallingford CT, 2016.
 
 ******************************************
 Gaussian 16:  ES64L-G16RevA.03 25-Dec-2016
                 7-May-2024 
 ******************************************
 %nprocshared=24
 Will use up to   24 processors via shared memory.
 %mem=20GB
 %oldchk=sp1_gs_pbe0.chk
 %chk=sp1_s1_pbe0.chk
 Copying data from "sp1_gs_pbe0.chk" to current chk file "sp1_s1_pbe0.chk"
 IOpt=  2 FromEx=T IUOpen= 4 IOptOp= 5 NList=   0 IFRang= 0 IUIn= 4 IUOut= 2.
 ----------------------------------------------------------------------
 #p PBE1PBE/def2TZVP EmpiricalDispersion=GD3BJ SCRF(PCM,Solvent=acetone
 ) TD(Singlets,NStates=5, root=1) opt guess=(read) geom=(allcheck) gfin
 put
 ----------------------------------------------------------------------
 1/18=20,19=15,26=3,29=7,38=1/1,3;
 2/9=110,12=2,40=1/2;
 3/5=44,7=101,11=9,14=-4,24=10,25=1,30=1,70=2201,71=1,72=19,74=-13,116=-2,124=41/1,2,3,8;
 4/5=1/1;
 5/5=2,38=6,53=19/2;
 8/6=1,10=1,107=1,108=5/1;
 9/8=1,15=2,41=5,42=1,48=1,70=2/14;
 10/5=4,28=1/2;
 6/7=2,8=2,9=2,10=2/1;
 7/12=6,13=5,14=1/1,2,3,16;
 1/18=20,19=15,26=3/3(2);
 2/9=110/2;
 99//99;
 2/9=110/2;
 3/5=44,7=101,11=9,14=-2,25=1,30=1,70=2205,71=1,72=19,74=-13,124=41/1,2,3,8;
 4/5=5,16=3,69=1/1;
 5/5=2,38=5,53=19/2;
 8/6=1,10=1,107=1,108=5/1;
 9/8=1,15=2,41=5,42=1,48=1,49=4,70=2/14;
 10/5=4,28=1/2;
 7/12=6,13=5,14=1/1,2,3,16;
 1/18=20,19=15,26=3/3(-8);
 2/9=110/2;
 6/7=2,8=2,9=2,10=2/1;
 99//99;
 Leave Link    1 at Tue May  7 19:42:50 2024, MaxMem=  2684354560 cpu:              14.3 elap:               0.6
 (Enter /s/ls4/groups/g0130/bin/g16/l101.exe)
 Structure from the checkpoint file:  "sp1_s1_pbe0.chk"
 -----
 TITLE
 -----
 Charge =  0 Multiplicity = 1
 Redundant internal coordinates found in file.  (old form).
 C,0,-5.6193898972,1.4758603938,-1.4699147917
 C,0,-4.7248029859,0.87789799,-0.5829078904
 C,0,-3.7347551251,1.673171034,-0.0290012627
 C,0,-3.6264843994,3.0262354395,-0.353393253
 C,0,-4.5127494375,3.6056522507,-1.2325595176
 C,0,-5.5202892389,2.8197866452,-1.7976556759
 H,0,-4.8035330925,-0.1763090997,-0.3470242545
 H,0,-6.2218598679,3.2601291206,-2.4960598001
 H,0,-6.4001395049,0.8712022337,-1.9176118675
 H,0,-4.4308271588,4.656709615,-1.488752812
 N,0,-2.7443720866,1.3185245781,0.878413898
 C,0,-1.71601116,2.3246364178,0.8452549057
 C,0,-2.4963983231,3.6233817767,0.4490066439
 C,0,-2.3954870689,-0.0622662583,1.0914985616
 H,0,-1.6303680096,-0.12378292,1.8651973164
 H,0,-2.0189672989,-0.5430887762,0.1798535144
 C,0,-3.091251965,4.2968887215,1.6892752191
 H,0,-3.660485306,3.5898432765,2.2960871427
 H,0,-3.7687946294,5.0897945708,1.3687025826
 H,0,-2.3122257715,4.7477958324,2.3081938435
 C,0,-1.6339525044,4.6194495005,-0.3063552674
 H,0,-1.2755876598,4.2126990287,-1.2504992718
 H,0,-0.7712593617,4.9145242523,0.2964361213
 H,0,-2.2156895261,5.5193894492,-0.5161502544
 O,0,-0.8379998455,2.0320836332,-0.2850767798
 C,0,0.3769731086,1.5103387328,-0.141525524
 C,0,-0.9599320086,2.3926939794,2.1264442699
 C,0,0.3034518829,1.9891042121,2.245401536
 C,0,1.0239961877,1.4736966285,1.1042636504
 H,0,-1.5127800252,2.7456870952,2.9860035766
 H,0,0.8090752793,2.0261352818,3.2038696279
 C,0,2.3047471264,0.9530569662,1.1800595855
 C,0,1.0103474577,1.0330294201,-1.288724038
 C,0,2.2842600804,0.5170824976,-1.2035021107
 C,0,2.9202625266,0.4802682651,0.0327751097
 H,0,2.8253011447,0.9156570034,2.1278007465
 H,0,0.4868263343,1.0770917837,-2.2351891672
 H,0,2.7928657351,0.1416785631,-2.0802705181
 N,0,4.2567209836,-0.0622493095,0.1233666546
 O,0,4.7959915912,-0.0874333222,1.2154155751
 O,0,4.7834143346,-0.4697526196,-0.8965861088
 H,0,-3.2689205686,-0.6151457507,1.4396261784
 Recover connectivity data from disk.
 ITRead=  0  0  0  0  0  0  0  0  0  0  0  0  0  0  0  0  0  0  0  0
 ITRead=  0  0  0  0  0  0  0  0  0  0  0  0  0  0  0  0  0  0  0  0
 ITRead=  0  0
 MicOpt= -1 -1 -1 -1 -1 -1 -1 -1 -1 -1 -1 -1 -1 -1 -1 -1 -1 -1 -1 -1
 MicOpt= -1 -1 -1 -1 -1 -1 -1 -1 -1 -1 -1 -1 -1 -1 -1 -1 -1 -1 -1 -1
 MicOpt= -1 -1
 NAtoms=     42 NQM=       42 NQMF=       0 NMMI=      0 NMMIF=      0
                NMic=       0 NMicF=      0.
                    Isotopes and Nuclear Properties:
 (Nuclear quadrupole moments (NQMom) in fm**2, nuclear magnetic moments (NMagM)
  in nuclear magnetons)

  Atom         1           2           3           4           5           6           7           8           9          10
 IAtWgt=          12          12          12          12          12          12           1           1           1           1
 AtmWgt=  12.0000000  12.0000000  12.0000000  12.0000000  12.0000000  12.0000000   1.0078250   1.0078250   1.0078250   1.0078250
 NucSpn=           0           0           0           0           0           0           1           1           1           1
 AtZEff=   3.6000000   3.6000000   3.6000000   3.6000000   3.6000000   3.6000000   1.0000000   1.0000000   1.0000000   1.0000000
 NQMom=    0.0000000   0.0000000   0.0000000   0.0000000   0.0000000   0.0000000   0.0000000   0.0000000   0.0000000   0.0000000
 NMagM=    0.0000000   0.0000000   0.0000000   0.0000000   0.0000000   0.0000000   2.7928460   2.7928460   2.7928460   2.7928460
 AtZNuc=   6.0000000   6.0000000   6.0000000   6.0000000   6.0000000   6.0000000   1.0000000   1.0000000   1.0000000   1.0000000

  Atom        11          12          13          14          15          16          17          18          19          20
 IAtWgt=          14          12          12          12           1           1          12           1           1           1
 AtmWgt=  14.0030740  12.0000000  12.0000000  12.0000000   1.0078250   1.0078250  12.0000000   1.0078250   1.0078250   1.0078250
 NucSpn=           2           0           0           0           1           1           0           1           1           1
 AtZEff=   4.5500000   3.6000000   3.6000000   3.6000000   1.0000000   1.0000000   3.6000000   1.0000000   1.0000000   1.0000000
 NQMom=    2.0440000   0.0000000   0.0000000   0.0000000   0.0000000   0.0000000   0.0000000   0.0000000   0.0000000   0.0000000
 NMagM=    0.4037610   0.0000000   0.0000000   0.0000000   2.7928460   2.7928460   0.0000000   2.7928460   2.7928460   2.7928460
 AtZNuc=   7.0000000   6.0000000   6.0000000   6.0000000   1.0000000   1.0000000   6.0000000   1.0000000   1.0000000   1.0000000

  Atom        21          22          23          24          25          26          27          28          29          30
 IAtWgt=          12           1           1           1          16          12          12          12          12           1
 AtmWgt=  12.0000000   1.0078250   1.0078250   1.0078250  15.9949146  12.0000000  12.0000000  12.0000000  12.0000000   1.0078250
 NucSpn=           0           1           1           1           0           0           0           0           0           1
 AtZEff=   3.6000000   1.0000000   1.0000000   1.0000000   5.6000000   3.6000000   3.6000000   3.6000000   3.6000000   1.0000000
 NQMom=    0.0000000   0.0000000   0.0000000   0.0000000   0.0000000   0.0000000   0.0000000   0.0000000   0.0000000   0.0000000
 NMagM=    0.0000000   2.7928460   2.7928460   2.7928460   0.0000000   0.0000000   0.0000000   0.0000000   0.0000000   2.7928460
 AtZNuc=   6.0000000   1.0000000   1.0000000   1.0000000   8.0000000   6.0000000   6.0000000   6.0000000   6.0000000   1.0000000

  Atom        31          32          33          34          35          36          37          38          39          40
 IAtWgt=           1          12          12          12          12           1           1           1          14          16
 AtmWgt=   1.0078250  12.0000000  12.0000000  12.0000000  12.0000000   1.0078250   1.0078250   1.0078250  14.0030740  15.9949146
 NucSpn=           1           0           0           0           0           1           1           1           2           0
 AtZEff=   1.0000000   3.6000000   3.6000000   3.6000000   3.6000000   1.0000000   1.0000000   1.0000000   4.5500000   5.6000000
 NQMom=    0.0000000   0.0000000   0.0000000   0.0000000   0.0000000   0.0000000   0.0000000   0.0000000   2.0440000   0.0000000
 NMagM=    2.7928460   0.0000000   0.0000000   0.0000000   0.0000000   2.7928460   2.7928460   2.7928460   0.4037610   0.0000000
 AtZNuc=   1.0000000   6.0000000   6.0000000   6.0000000   6.0000000   1.0000000   1.0000000   1.0000000   7.0000000   8.0000000

  Atom        41          42
 IAtWgt=          16           1
 AtmWgt=  15.9949146   1.0078250
 NucSpn=           0           1
 AtZEff=   5.6000000   1.0000000
 NQMom=    0.0000000   0.0000000
 NMagM=    0.0000000   2.7928460
 AtZNuc=   8.0000000   1.0000000
 Leave Link  101 at Tue May  7 19:42:51 2024, MaxMem=  2684354560 cpu:               7.3 elap:               0.3
 (Enter /s/ls4/groups/g0130/bin/g16/l103.exe)

 GradGradGradGradGradGradGradGradGradGradGradGradGradGradGradGradGradGrad
 Berny optimization.
 Initialization pass.
                           ----------------------------
                           !    Initial Parameters    !
                           ! (Angstroms and Degrees)  !
 --------------------------                            --------------------------
 ! Name  Definition              Value          Derivative Info.                !
 --------------------------------------------------------------------------------
 ! R1    R(1,2)                  1.3945         estimate D2E/DX2                !
 ! R2    R(1,6)                  1.3869         estimate D2E/DX2                !
 ! R3    R(1,9)                  1.0843         estimate D2E/DX2                !
 ! R4    R(2,3)                  1.3854         estimate D2E/DX2                !
 ! R5    R(2,7)                  1.0831         estimate D2E/DX2                !
 ! R6    R(3,4)                  1.3956         estimate D2E/DX2                !
 ! R7    R(3,11)                 1.3893         estimate D2E/DX2                !
 ! R8    R(4,5)                  1.3763         estimate D2E/DX2                !
 ! R9    R(4,13)                 1.5091         estimate D2E/DX2                !
 ! R10   R(5,6)                  1.3972         estimate D2E/DX2                !
 ! R11   R(5,10)                 1.0849         estimate D2E/DX2                !
 ! R12   R(6,8)                  1.0835         estimate D2E/DX2                !
 ! R13   R(11,12)                1.4391         estimate D2E/DX2                !
 ! R14   R(11,14)                1.44           estimate D2E/DX2                !
 ! R15   R(12,13)                1.5661         estimate D2E/DX2                !
 ! R16   R(12,25)                1.4609         estimate D2E/DX2                !
 ! R17   R(12,27)                1.4892         estimate D2E/DX2                !
 ! R18   R(13,17)                1.5316         estimate D2E/DX2                !
 ! R19   R(13,21)                1.5187         estimate D2E/DX2                !
 ! R20   R(14,15)                1.0899         estimate D2E/DX2                !
 ! R21   R(14,16)                1.0973         estimate D2E/DX2                !
 ! R22   R(14,42)                1.0908         estimate D2E/DX2                !
 ! R23   R(17,18)                1.0919         estimate D2E/DX2                !
 ! R24   R(17,19)                1.0911         estimate D2E/DX2                !
 ! R25   R(17,20)                1.0924         estimate D2E/DX2                !
 ! R26   R(21,22)                1.0887         estimate D2E/DX2                !
 ! R27   R(21,23)                1.093          estimate D2E/DX2                !
 ! R28   R(21,24)                1.0919         estimate D2E/DX2                !
 ! R29   R(25,26)                1.33           estimate D2E/DX2                !
 ! R30   R(26,29)                1.4043         estimate D2E/DX2                !
 ! R31   R(26,33)                1.3947         estimate D2E/DX2                !
 ! R32   R(27,28)                1.3316         estimate D2E/DX2                !
 ! R33   R(27,30)                1.0812         estimate D2E/DX2                !
 ! R34   R(28,29)                1.4447         estimate D2E/DX2                !
 ! R35   R(28,31)                1.0843         estimate D2E/DX2                !
 ! R36   R(29,32)                1.3846         estimate D2E/DX2                !
 ! R37   R(32,35)                1.3852         estimate D2E/DX2                !
 ! R38   R(32,36)                1.0819         estimate D2E/DX2                !
 ! R39   R(33,34)                1.3771         estimate D2E/DX2                !
 ! R40   R(33,37)                1.0825         estimate D2E/DX2                !
 ! R41   R(34,35)                1.3908         estimate D2E/DX2                !
 ! R42   R(34,38)                1.0809         estimate D2E/DX2                !
 ! R43   R(35,39)                1.4452         estimate D2E/DX2                !
 ! R44   R(39,40)                1.2182         estimate D2E/DX2                !
 ! R45   R(39,41)                1.2181         estimate D2E/DX2                !
 ! A1    A(2,1,6)              121.3325         estimate D2E/DX2                !
 ! A2    A(2,1,9)              119.0419         estimate D2E/DX2                !
 ! A3    A(6,1,9)              119.6226         estimate D2E/DX2                !
 ! A4    A(1,2,3)              117.8133         estimate D2E/DX2                !
 ! A5    A(1,2,7)              120.6133         estimate D2E/DX2                !
 ! A6    A(3,2,7)              121.5713         estimate D2E/DX2                !
 ! A7    A(2,3,4)              121.2671         estimate D2E/DX2                !
 ! A8    A(2,3,11)             128.6115         estimate D2E/DX2                !
 ! A9    A(4,3,11)             110.1213         estimate D2E/DX2                !
 ! A10   A(3,4,5)              120.4438         estimate D2E/DX2                !
 ! A11   A(3,4,13)             108.5499         estimate D2E/DX2                !
 ! A12   A(5,4,13)             130.9405         estimate D2E/DX2                !
 ! A13   A(4,5,6)              119.0747         estimate D2E/DX2                !
 ! A14   A(4,5,10)             120.6693         estimate D2E/DX2                !
 ! A15   A(6,5,10)             120.2555         estimate D2E/DX2                !
 ! A16   A(1,6,5)              120.0669         estimate D2E/DX2                !
 ! A17   A(1,6,8)              119.9938         estimate D2E/DX2                !
 ! A18   A(5,6,8)              119.9387         estimate D2E/DX2                !
 ! A19   A(3,11,12)            108.4156         estimate D2E/DX2                !
 ! A20   A(3,11,14)            120.94           estimate D2E/DX2                !
 ! A21   A(12,11,14)           120.0437         estimate D2E/DX2                !
 ! A22   A(11,12,13)           103.2694         estimate D2E/DX2                !
 ! A23   A(11,12,25)           107.8972         estimate D2E/DX2                !
 ! A24   A(11,12,27)           112.0205         estimate D2E/DX2                !
 ! A25   A(13,12,25)           105.6516         estimate D2E/DX2                !
 ! A26   A(13,12,27)           115.6427         estimate D2E/DX2                !
 ! A27   A(25,12,27)           111.6954         estimate D2E/DX2                !
 ! A28   A(4,13,12)            100.3422         estimate D2E/DX2                !
 ! A29   A(4,13,17)            108.2839         estimate D2E/DX2                !
 ! A30   A(4,13,21)            114.8539         estimate D2E/DX2                !
 ! A31   A(12,13,17)           110.6902         estimate D2E/DX2                !
 ! A32   A(12,13,21)           112.7528         estimate D2E/DX2                !
 ! A33   A(17,13,21)           109.5672         estimate D2E/DX2                !
 ! A34   A(11,14,15)           109.2234         estimate D2E/DX2                !
 ! A35   A(11,14,16)           112.3558         estimate D2E/DX2                !
 ! A36   A(11,14,42)           109.8309         estimate D2E/DX2                !
 ! A37   A(15,14,16)           108.9154         estimate D2E/DX2                !
 ! A38   A(15,14,42)           107.8769         estimate D2E/DX2                !
 ! A39   A(16,14,42)           108.5313         estimate D2E/DX2                !
 ! A40   A(13,17,18)           111.5785         estimate D2E/DX2                !
 ! A41   A(13,17,19)           108.8335         estimate D2E/DX2                !
 ! A42   A(13,17,20)           111.3064         estimate D2E/DX2                !
 ! A43   A(18,17,19)           108.0669         estimate D2E/DX2                !
 ! A44   A(18,17,20)           108.9179         estimate D2E/DX2                !
 ! A45   A(19,17,20)           108.0197         estimate D2E/DX2                !
 ! A46   A(13,21,22)           111.914          estimate D2E/DX2                !
 ! A47   A(13,21,23)           110.5471         estimate D2E/DX2                !
 ! A48   A(13,21,24)           109.4848         estimate D2E/DX2                !
 ! A49   A(22,21,23)           108.6221         estimate D2E/DX2                !
 ! A50   A(22,21,24)           108.4613         estimate D2E/DX2                !
 ! A51   A(23,21,24)           107.6956         estimate D2E/DX2                !
 ! A52   A(12,25,26)           122.9614         estimate D2E/DX2                !
 ! A53   A(25,26,29)           121.795          estimate D2E/DX2                !
 ! A54   A(25,26,33)           117.4086         estimate D2E/DX2                !
 ! A55   A(29,26,33)           120.7677         estimate D2E/DX2                !
 ! A56   A(12,27,28)           123.0041         estimate D2E/DX2                !
 ! A57   A(12,27,30)           116.0563         estimate D2E/DX2                !
 ! A58   A(28,27,30)           120.8667         estimate D2E/DX2                !
 ! A59   A(27,28,29)           120.7157         estimate D2E/DX2                !
 ! A60   A(27,28,31)           120.7333         estimate D2E/DX2                !
 ! A61   A(29,28,31)           118.5447         estimate D2E/DX2                !
 ! A62   A(26,29,28)           117.493          estimate D2E/DX2                !
 ! A63   A(26,29,32)           118.9843         estimate D2E/DX2                !
 ! A64   A(28,29,32)           123.5227         estimate D2E/DX2                !
 ! A65   A(29,32,35)           119.6065         estimate D2E/DX2                !
 ! A66   A(29,32,36)           120.3973         estimate D2E/DX2                !
 ! A67   A(35,32,36)           119.9961         estimate D2E/DX2                !
 ! A68   A(26,33,34)           119.8313         estimate D2E/DX2                !
 ! A69   A(26,33,37)           119.054          estimate D2E/DX2                !
 ! A70   A(34,33,37)           121.1147         estimate D2E/DX2                !
 ! A71   A(33,34,35)           119.2077         estimate D2E/DX2                !
 ! A72   A(33,34,38)           121.0122         estimate D2E/DX2                !
 ! A73   A(35,34,38)           119.7801         estimate D2E/DX2                !
 ! A74   A(32,35,34)           121.6023         estimate D2E/DX2                !
 ! A75   A(32,35,39)           119.1525         estimate D2E/DX2                !
 ! A76   A(34,35,39)           119.2451         estimate D2E/DX2                !
 ! A77   A(35,39,40)           118.2498         estimate D2E/DX2                !
 ! A78   A(35,39,41)           118.2257         estimate D2E/DX2                !
 ! A79   A(40,39,41)           123.5245         estimate D2E/DX2                !
 ! D1    D(6,1,2,3)              0.4431         estimate D2E/DX2                !
 ! D2    D(6,1,2,7)           -179.0415         estimate D2E/DX2                !
 ! D3    D(9,1,2,3)            179.8025         estimate D2E/DX2                !
 ! D4    D(9,1,2,7)              0.3178         estimate D2E/DX2                !
 ! D5    D(2,1,6,5)             -0.2514         estimate D2E/DX2                !
 ! D6    D(2,1,6,8)            179.4675         estimate D2E/DX2                !
 ! D7    D(9,1,6,5)           -179.607          estimate D2E/DX2                !
 ! D8    D(9,1,6,8)              0.1119         estimate D2E/DX2                !
 ! D9    D(1,2,3,4)             -0.4863         estimate D2E/DX2                !
 ! D10   D(1,2,3,11)           179.3698         estimate D2E/DX2                !
 ! D11   D(7,2,3,4)            178.9931         estimate D2E/DX2                !
 ! D12   D(7,2,3,11)            -1.1508         estimate D2E/DX2                !
 ! D13   D(2,3,4,5)              0.3411         estimate D2E/DX2                !
 ! D14   D(2,3,4,13)           177.7001         estimate D2E/DX2                !
 ! D15   D(11,3,4,5)          -179.539          estimate D2E/DX2                !
 ! D16   D(11,3,4,13)           -2.18           estimate D2E/DX2                !
 ! D17   D(2,3,11,12)          162.1356         estimate D2E/DX2                !
 ! D18   D(2,3,11,14)           17.5669         estimate D2E/DX2                !
 ! D19   D(4,3,11,12)          -17.9954         estimate D2E/DX2                !
 ! D20   D(4,3,11,14)         -162.5642         estimate D2E/DX2                !
 ! D21   D(3,4,5,6)             -0.1325         estimate D2E/DX2                !
 ! D22   D(3,4,5,10)          -179.8842         estimate D2E/DX2                !
 ! D23   D(13,4,5,6)          -176.8173         estimate D2E/DX2                !
 ! D24   D(13,4,5,10)            3.431          estimate D2E/DX2                !
 ! D25   D(3,4,13,12)           19.1089         estimate D2E/DX2                !
 ! D26   D(3,4,13,17)          -96.902          estimate D2E/DX2                !
 ! D27   D(3,4,13,21)          140.2939         estimate D2E/DX2                !
 ! D28   D(5,4,13,12)         -163.9056         estimate D2E/DX2                !
 ! D29   D(5,4,13,17)           80.0835         estimate D2E/DX2                !
 ! D30   D(5,4,13,21)          -42.7206         estimate D2E/DX2                !
 ! D31   D(4,5,6,1)              0.0893         estimate D2E/DX2                !
 ! D32   D(4,5,6,8)           -179.6298         estimate D2E/DX2                !
 ! D33   D(10,5,6,1)           179.8421         estimate D2E/DX2                !
 ! D34   D(10,5,6,8)             0.123          estimate D2E/DX2                !
 ! D35   D(3,11,12,13)          29.38           estimate D2E/DX2                !
 ! D36   D(3,11,12,25)         -82.1778         estimate D2E/DX2                !
 ! D37   D(3,11,12,27)         154.4793         estimate D2E/DX2                !
 ! D38   D(14,11,12,13)        174.3217         estimate D2E/DX2                !
 ! D39   D(14,11,12,25)         62.7638         estimate D2E/DX2                !
 ! D40   D(14,11,12,27)        -60.5791         estimate D2E/DX2                !
 ! D41   D(3,11,14,15)        -177.7941         estimate D2E/DX2                !
 ! D42   D(3,11,14,16)          61.2336         estimate D2E/DX2                !
 ! D43   D(3,11,14,42)         -59.6724         estimate D2E/DX2                !
 ! D44   D(12,11,14,15)         41.6562         estimate D2E/DX2                !
 ! D45   D(12,11,14,16)        -79.316          estimate D2E/DX2                !
 ! D46   D(12,11,14,42)        159.7779         estimate D2E/DX2                !
 ! D47   D(11,12,13,4)         -28.5933         estimate D2E/DX2                !
 ! D48   D(11,12,13,17)         85.5999         estimate D2E/DX2                !
 ! D49   D(11,12,13,21)       -151.2657         estimate D2E/DX2                !
 ! D50   D(25,12,13,4)          84.6086         estimate D2E/DX2                !
 ! D51   D(25,12,13,17)       -161.1982         estimate D2E/DX2                !
 ! D52   D(25,12,13,21)        -38.0639         estimate D2E/DX2                !
 ! D53   D(27,12,13,4)        -151.3119         estimate D2E/DX2                !
 ! D54   D(27,12,13,17)        -37.1187         estimate D2E/DX2                !
 ! D55   D(27,12,13,21)         86.0156         estimate D2E/DX2                !
 ! D56   D(11,12,25,26)       -105.1627         estimate D2E/DX2                !
 ! D57   D(13,12,25,26)        144.9013         estimate D2E/DX2                !
 ! D58   D(27,12,25,26)         18.3777         estimate D2E/DX2                !
 ! D59   D(11,12,27,28)        109.5226         estimate D2E/DX2                !
 ! D60   D(11,12,27,30)        -67.393          estimate D2E/DX2                !
 ! D61   D(13,12,27,28)       -132.5218         estimate D2E/DX2                !
 ! D62   D(13,12,27,30)         50.5627         estimate D2E/DX2                !
 ! D63   D(25,12,27,28)        -11.6539         estimate D2E/DX2                !
 ! D64   D(25,12,27,30)        171.4306         estimate D2E/DX2                !
 ! D65   D(4,13,17,18)          58.1062         estimate D2E/DX2                !
 ! D66   D(4,13,17,19)         -61.0545         estimate D2E/DX2                !
 ! D67   D(4,13,17,20)        -179.9914         estimate D2E/DX2                !
 ! D68   D(12,13,17,18)        -50.974          estimate D2E/DX2                !
 ! D69   D(12,13,17,19)       -170.1347         estimate D2E/DX2                !
 ! D70   D(12,13,17,20)         70.9284         estimate D2E/DX2                !
 ! D71   D(21,13,17,18)       -175.9336         estimate D2E/DX2                !
 ! D72   D(21,13,17,19)         64.9058         estimate D2E/DX2                !
 ! D73   D(21,13,17,20)        -54.0311         estimate D2E/DX2                !
 ! D74   D(4,13,21,22)         -51.9115         estimate D2E/DX2                !
 ! D75   D(4,13,21,23)        -173.134          estimate D2E/DX2                !
 ! D76   D(4,13,21,24)          68.3797         estimate D2E/DX2                !
 ! D77   D(12,13,21,22)         62.2186         estimate D2E/DX2                !
 ! D78   D(12,13,21,23)        -59.0038         estimate D2E/DX2                !
 ! D79   D(12,13,21,24)       -177.4901         estimate D2E/DX2                !
 ! D80   D(17,13,21,22)       -174.0239         estimate D2E/DX2                !
 ! D81   D(17,13,21,23)         64.7537         estimate D2E/DX2                !
 ! D82   D(17,13,21,24)        -53.7326         estimate D2E/DX2                !
 ! D83   D(12,25,26,29)        -14.3332         estimate D2E/DX2                !
 ! D84   D(12,25,26,33)        167.6037         estimate D2E/DX2                !
 ! D85   D(25,26,29,28)          1.8797         estimate D2E/DX2                !
 ! D86   D(25,26,29,32)       -178.0974         estimate D2E/DX2                !
 ! D87   D(33,26,29,28)        179.8785         estimate D2E/DX2                !
 ! D88   D(33,26,29,32)         -0.0986         estimate D2E/DX2                !
 ! D89   D(25,26,33,34)        178.18           estimate D2E/DX2                !
 ! D90   D(25,26,33,37)         -1.7541         estimate D2E/DX2                !
 ! D91   D(29,26,33,34)          0.0959         estimate D2E/DX2                !
 ! D92   D(29,26,33,37)       -179.8381         estimate D2E/DX2                !
 ! D93   D(12,27,28,29)          1.022          estimate D2E/DX2                !
 ! D94   D(12,27,28,31)       -178.0502         estimate D2E/DX2                !
 ! D95   D(30,27,28,29)        177.7937         estimate D2E/DX2                !
 ! D96   D(30,27,28,31)         -1.2785         estimate D2E/DX2                !
 ! D97   D(27,28,29,26)          4.6561         estimate D2E/DX2                !
 ! D98   D(27,28,29,32)       -175.3679         estimate D2E/DX2                !
 ! D99   D(31,28,29,26)       -176.2517         estimate D2E/DX2                !
 ! D100  D(31,28,29,32)          3.7242         estimate D2E/DX2                !
 ! D101  D(26,29,32,35)         -0.0283         estimate D2E/DX2                !
 ! D102  D(26,29,32,36)        179.8713         estimate D2E/DX2                !
 ! D103  D(28,29,32,35)        179.9961         estimate D2E/DX2                !
 ! D104  D(28,29,32,36)         -0.1043         estimate D2E/DX2                !
 ! D105  D(29,32,35,34)          0.1607         estimate D2E/DX2                !
 ! D106  D(29,32,35,39)       -179.9425         estimate D2E/DX2                !
 ! D107  D(36,32,35,34)       -179.7393         estimate D2E/DX2                !
 ! D108  D(36,32,35,39)          0.1575         estimate D2E/DX2                !
 ! D109  D(26,33,34,35)          0.0337         estimate D2E/DX2                !
 ! D110  D(26,33,34,38)        179.9793         estimate D2E/DX2                !
 ! D111  D(37,33,34,35)        179.9664         estimate D2E/DX2                !
 ! D112  D(37,33,34,38)         -0.088          estimate D2E/DX2                !
 ! D113  D(33,34,35,32)         -0.1635         estimate D2E/DX2                !
 ! D114  D(33,34,35,39)        179.9397         estimate D2E/DX2                !
 ! D115  D(38,34,35,32)        179.8903         estimate D2E/DX2                !
 ! D116  D(38,34,35,39)         -0.0065         estimate D2E/DX2                !
 ! D117  D(32,35,39,40)          0.2024         estimate D2E/DX2                !
 ! D118  D(32,35,39,41)       -179.7949         estimate D2E/DX2                !
 ! D119  D(34,35,39,40)       -179.8983         estimate D2E/DX2                !
 ! D120  D(34,35,39,41)          0.1044         estimate D2E/DX2                !
 --------------------------------------------------------------------------------
 Trust Radius=3.00D-01 FncErr=1.00D-07 GrdErr=1.00D-06 EigMax=2.50D+02 EigMin=1.00D-04
 Number of steps in this run=    252 maximum allowed number of steps=    252.
 GradGradGradGradGradGradGradGradGradGradGradGradGradGradGradGradGradGrad

 Leave Link  103 at Tue May  7 19:42:51 2024, MaxMem=  2684354560 cpu:               0.7 elap:               0.1
 (Enter /s/ls4/groups/g0130/bin/g16/l202.exe)
                          Input orientation:                          
 ---------------------------------------------------------------------
 Center     Atomic      Atomic             Coordinates (Angstroms)
 Number     Number       Type             X           Y           Z
 ---------------------------------------------------------------------
      1          6           0       -5.619390    1.475860   -1.469915
      2          6           0       -4.724803    0.877898   -0.582908
      3          6           0       -3.734755    1.673171   -0.029001
      4          6           0       -3.626484    3.026235   -0.353393
      5          6           0       -4.512749    3.605652   -1.232560
      6          6           0       -5.520289    2.819787   -1.797656
      7          1           0       -4.803533   -0.176309   -0.347024
      8          1           0       -6.221860    3.260129   -2.496060
      9          1           0       -6.400140    0.871202   -1.917612
     10          1           0       -4.430827    4.656710   -1.488753
     11          7           0       -2.744372    1.318525    0.878414
     12          6           0       -1.716011    2.324636    0.845255
     13          6           0       -2.496398    3.623382    0.449007
     14          6           0       -2.395487   -0.062266    1.091499
     15          1           0       -1.630368   -0.123783    1.865197
     16          1           0       -2.018967   -0.543089    0.179854
     17          6           0       -3.091252    4.296889    1.689275
     18          1           0       -3.660485    3.589843    2.296087
     19          1           0       -3.768795    5.089795    1.368703
     20          1           0       -2.312226    4.747796    2.308194
     21          6           0       -1.633953    4.619450   -0.306355
     22          1           0       -1.275588    4.212699   -1.250499
     23          1           0       -0.771259    4.914524    0.296436
     24          1           0       -2.215690    5.519389   -0.516150
     25          8           0       -0.838000    2.032084   -0.285077
     26          6           0        0.376973    1.510339   -0.141526
     27          6           0       -0.959932    2.392694    2.126444
     28          6           0        0.303452    1.989104    2.245402
     29          6           0        1.023996    1.473697    1.104264
     30          1           0       -1.512780    2.745687    2.986004
     31          1           0        0.809075    2.026135    3.203870
     32          6           0        2.304747    0.953057    1.180060
     33          6           0        1.010347    1.033029   -1.288724
     34          6           0        2.284260    0.517082   -1.203502
     35          6           0        2.920263    0.480268    0.032775
     36          1           0        2.825301    0.915657    2.127801
     37          1           0        0.486826    1.077092   -2.235189
     38          1           0        2.792866    0.141679   -2.080271
     39          7           0        4.256721   -0.062249    0.123367
     40          8           0        4.795992   -0.087433    1.215416
     41          8           0        4.783414   -0.469753   -0.896586
     42          1           0       -3.268921   -0.615146    1.439626
 ---------------------------------------------------------------------
                    Distance matrix (angstroms):
                    1          2          3          4          5
     1  C    0.000000
     2  C    1.394498   0.000000
     3  C    2.380549   1.385448   0.000000
     4  C    2.760789   2.423703   1.395613   0.000000
     5  C    2.411847   2.812056   2.405891   1.376271   0.000000
     6  C    1.386857   2.424735   2.762426   2.390609   1.397160
     7  H    2.157816   1.083140   2.159630   3.412005   3.895120
     8  H    2.144658   3.402404   3.845842   3.373678   2.153341
     9  H    1.084257   2.142016   3.363670   3.845011   3.392456
    10  H    3.395709   3.896972   3.393655   2.143468   1.084928
    11  N    3.715525   2.500344   1.389257   2.282925   3.579710
    12  C    4.617012   3.631188   2.294354   2.361971   3.712150
    13  C    4.248198   3.683520   2.359098   1.509147   2.625576
    14  C    4.395477   3.018817   2.461890   3.625177   4.830908
    15  H    5.440048   4.070886   3.353428   4.339267   5.640293
    16  H    4.445327   3.150009   2.810579   3.950764   5.042411
    17  C    4.932562   4.418235   3.201635   2.464453   3.321985
    18  H    4.742257   4.095855   3.014164   2.708977   3.630145
    19  H    4.954086   4.739495   3.691619   2.691494   3.085889
    20  H    5.993079   5.399547   4.115749   3.431485   4.322468
    21  C    5.207661   4.860972   3.629167   2.551613   3.189531
    22  H    5.138779   4.843930   3.740156   2.781944   3.293637
    23  H    6.200708   5.718226   4.403929   3.484282   4.248496
    24  H    5.370751   5.276699   4.163925   2.869259   3.074429
    25  O    4.957309   4.065475   2.930117   2.961191   4.108239
    26  C    6.141838   5.159740   4.116489   4.286082   5.430477
    27  C    5.956923   4.879493   3.586545   3.696143   5.037528
    28  C    7.010496   5.875156   4.645410   4.824290   6.156723
    29  C    7.124674   6.020815   4.895896   5.114891   6.376639
    30  H    6.191277   5.151976   3.895859   3.962073   5.247440
    31  H    7.966946   6.803083   5.587704   5.773085   7.106236
    32  C    8.371836   7.247639   6.201289   6.467538   7.702938
    33  C    6.646980   5.780501   4.951028   5.133023   6.093123
    34  C    7.966048   7.045728   6.240556   6.477301   7.465885
    35  C    8.727826   7.680117   6.761368   7.034982   8.162032
    36  H    9.196205   8.022060   6.946939   7.227475   8.507355
    37  H    6.166890   5.470904   4.800451   4.925408   5.691629
    38  H    8.539240   7.700614   7.011634   7.246436   8.129560
    39  N   10.121358   9.058172   8.179156   8.480033   9.601857
    40  O   10.868995   9.737113   8.798974   9.115602  10.309419
    41  O   10.598700   9.608369   8.826326   9.123781  10.155809
    42  H    4.285142   2.905068   2.758670   4.074608   5.148089
                    6          7          8          9         10
     6  C    0.000000
     7  H    3.405093   0.000000
     8  H    1.083453   4.294079   0.000000
     9  H    2.141380   2.472484   2.464418   0.000000
    10  H    2.157924   4.980012   2.484533   4.288610   0.000000
    11  N    4.137735   2.824247   5.220136   4.624121   4.426182
    12  C    4.658614   4.148379   5.687021   5.629117   4.272749
    13  C    3.851905   4.515992   4.762818   5.330532   2.926550
    14  C    5.139828   2.807319   6.208866   5.095424   5.750569
    15  H    6.100212   3.868548   7.180057   6.168497   6.476470
    16  H    5.242016   2.857610   6.268116   5.059076   5.969859
    17  C    4.498971   5.204606   5.328471   5.974420   3.467534
    18  H    4.561862   4.740939   5.443714   5.714191   4.007074
    19  H    4.271592   5.634381   4.929665   5.959896   2.964945
    20  H    5.555798   6.124019   6.370184   7.042475   4.348974
    21  C    4.535017   5.748669   5.262267   6.273918   3.036768
    22  H    4.500786   5.703162   5.188875   6.153996   3.195222
    23  H    5.597002   6.526090   6.343824   7.275627   4.079927
    24  H    4.455389   6.258316   5.007365   6.409318   2.568464
    25  O    4.983192   4.539415   5.948318   5.911871   4.609328
    26  C    6.263795   5.452032   7.221509   7.035072   5.901662
    27  C    6.031403   5.243195   7.057469   6.947315   5.499321
    28  C    7.138088   6.122988   8.165577   7.969851   6.593438
    29  C    7.284282   6.228070   8.285898   8.038191   6.827181
    30  H    6.240915   5.520525   7.245212   7.172546   5.673663
    31  H    8.105923   6.997212   9.134877   8.918308   7.509807
    32  C    8.578034   7.357656   9.567626   9.239985   8.136803
    33  C    6.789752   6.012529   7.663058   7.438885   6.540447
    34  C    8.158827   7.172946   9.030453   8.720903   7.893686
    35  C    8.948002   7.760951   9.884383   9.530306   8.590473
    36  H    9.417207   8.094212  10.427260  10.073534   8.928960
    37  H    6.270076   5.755353   7.059758   6.897358   6.128144
    38  H    8.738460   7.798111   9.547926   9.223340   8.539153
    39  N   10.372386   9.073174  11.300454  10.890620  10.017035
    40  O   11.133561   9.726253  12.098524  11.665684  10.721642
    41  O   10.853539   9.607169  11.729723  11.309842  10.560943
    42  H    5.229476   2.395774   6.263165   4.825434   6.141489
                   11         12         13         14         15
    11  N    0.000000
    12  C    1.439058   0.000000
    13  C    2.357594   1.566128   0.000000
    14  C    1.440038   2.493918   3.742590   0.000000
    15  H    2.072438   2.653747   4.098396   1.089863   0.000000
    16  H    2.116555   2.959458   4.202364   1.097294   1.779666
    17  C    3.106199   2.548222   1.531577   4.454622   4.659127
    18  H    2.829832   2.736173   2.183559   4.048353   4.254182
    19  H    3.938566   3.483392   2.148302   5.339152   5.656922
    20  H    3.740444   2.892640   2.180551   4.962255   4.938973
    21  C    3.678697   2.568873   1.518728   4.944936   5.216695
    22  H    3.881475   2.854985   2.173935   5.001445   5.351496
    23  H    4.142835   2.810921   2.160192   5.295157   5.346365
    24  H    4.457755   3.508497   2.145966   5.811346   6.152951
    25  O    2.344596   1.460870   2.412756   2.950767   3.146313
    26  C    3.289356   2.453039   3.615238   3.417597   3.275165
    27  C    2.428095   1.489206   2.586333   3.026344   2.617325
    28  C    3.406987   2.480166   3.706354   3.581045   2.889378
    29  C    3.778318   2.880768   4.176564   3.748628   3.190080
    30  H    2.827640   2.191208   2.859057   3.500418   3.082838
    31  H    4.305281   3.468174   4.589839   4.369525   3.516401
    32  C    5.071308   4.261434   5.542208   4.809462   4.136923
    33  C    4.344642   3.695287   4.693282   4.297074   4.273033
    34  C    5.501257   4.844257   5.935872   5.244302   5.015171
    35  C    5.788425   5.055378   6.276355   5.447241   4.942761
    36  H    5.722284   4.924801   6.202468   5.411736   4.582836
    37  H    4.493713   3.987229   4.752697   4.546726   4.768415
    38  H    6.387471   5.801205   6.818784   6.084465   5.933143
    39  N    7.175788   6.472393   7.700295   6.722288   6.139672
    40  O    7.677719   6.954227   8.218058   7.192590   6.459229
    41  O    7.938270   7.285956   8.459317   7.460238   6.991691
    42  H    2.080671   3.377443   4.420773   1.090759   1.762783
                   16         17         18         19         20
    16  H    0.000000
    17  C    5.182039   0.000000
    18  H    4.924851   1.091861   0.000000
    19  H    6.017029   1.091114   1.766813   0.000000
    20  H    5.710455   1.092364   1.777303   1.766692   0.000000
    21  C    5.199657   2.492049   3.455377   2.754014   2.704144
    22  H    5.021558   3.456298   4.319023   3.720967   3.745029
    23  H    5.599635   2.775579   3.755131   3.188368   2.539595
    24  H    6.105470   2.669273   3.703952   2.479790   2.929436
    25  O    2.870951   3.755603   4.129824   4.546882   4.034041
    26  C    3.171810   4.810954   5.154354   5.681609   4.869707
    27  C    3.678259   2.891297   2.958874   3.967144   2.721807
    28  C    4.009005   4.142362   4.275246   5.192887   3.802117
    29  C    3.765844   5.024731   5.276636   6.009737   4.826961
    30  H    4.352787   2.565016   2.408573   3.633195   2.259863
    31  H    4.872721   4.760554   4.821434   5.806095   4.237003
    32  C    4.683308   6.368463   6.616809   7.350925   6.081872
    33  C    3.717205   6.028630   6.419100   6.808778   6.146283
    34  C    4.642780   7.179918   7.551754   8.010331   7.166493
    35  C    5.046274   7.310875   7.622223   8.232613   7.125185
    36  H    5.421197   6.828663   7.017479   7.841030   6.411865
    37  H    3.838804   6.210568   6.636760   6.870235   6.476966
    38  H    5.360112   8.130073   8.525731   8.912612   8.157015
    39  N    6.294336   8.686015   8.985580   9.617865   8.429773
    40  O    6.908232   9.036340   9.284515  10.009133   8.666046
    41  O    6.887416   9.561272   9.898127  10.448941   9.372381
    42  H    1.776120   4.921582   4.309151   5.727237   5.516413
                   21         22         23         24         25
    21  C    0.000000
    22  H    1.088705   0.000000
    23  H    1.093008   1.771980   0.000000
    24  H    1.091936   1.769322   1.764238   0.000000
    25  O    2.707112   2.424584   2.941271   3.756691   0.000000
    26  C    3.706422   3.356118   3.619216   4.789022   1.330032
    27  C    3.366193   3.849130   3.121563   4.282109   2.441381
    28  C    4.145324   4.433854   3.675806   5.141513   2.776343
    29  C    4.353194   4.281954   3.964193   5.430372   2.389371
    30  H    3.790158   4.489581   3.533763   4.522454   3.415337
    31  H    5.001534   5.382219   4.392427   5.932164   3.858191
    32  C    5.582582   5.417719   5.092723   6.645515   3.631499
    33  C    4.562870   3.916281   4.555530   5.579571   2.328477
    34  C    5.743403   5.131501   5.560891   6.763510   3.589880
    35  C    6.163498   5.760468   5.775766   7.216098   4.078443
    36  H    6.287141   6.253054   5.681556   7.320957   4.526385
    37  H    4.557017   3.729310   4.766319   5.476559   2.543642
    38  H    6.541707   5.814984   6.413406   7.513446   4.469848
    39  N    7.536776   7.125246   7.076639   8.570634   5.523517
    40  O    8.112627   7.838109   7.540450   9.143219   6.203683
    41  O    8.211635   7.665645   7.827397   9.219653   6.183318
    42  H    5.755220   5.875222   6.174338   6.524330   3.986452
                   26         27         28         29         30
    26  C    0.000000
    27  C    2.776608   0.000000
    28  C    2.435578   1.331606   0.000000
    29  C    1.404269   2.413582   1.444654   0.000000
    30  H    3.857291   1.081243   2.102286   3.405017   0.000000
    31  H    3.412393   2.103473   1.084291   2.181679   2.440539
    32  C    2.402803   3.691386   2.492695   1.384606   4.587861
    33  C    1.394651   4.170619   3.728783   2.433262   5.250968
    34  C    2.398353   5.013107   4.240918   2.798063   6.077512
    35  C    2.749499   4.805906   3.744329   2.393912   5.788398
    36  H    3.390840   4.063204   2.743327   2.145632   4.785862
    37  H    2.140841   4.779934   4.576143   3.405553   5.834680
    38  H    3.386517   6.070174   5.321804   3.878715   7.140489
    39  N    4.194716   6.103485   4.933500   3.711037   7.026118
    40  O    4.891001   6.333377   5.055274   4.083801   7.138778
    41  O    4.889540   7.093542   5.999010   4.681199   8.065706
    42  H    4.506691   3.853602   4.493689   4.785903   4.095181
                   31         32         33         34         35
    31  H    0.000000
    32  C    2.735752   0.000000
    33  C    4.605450   2.788684   0.000000
    34  C    4.886546   2.423192   1.377068   0.000000
    35  C    4.111284   1.385153   2.387400   1.390768   0.000000
    36  H    2.540916   1.081937   3.870462   3.398406   2.141895
    37  H    5.530632   3.870936   1.082503   2.146801   3.379567
    38  H    5.950524   3.395047   2.144394   1.080893   2.143790
    39  N    5.073176   2.440830   3.705749   2.446795   1.445217
    40  O    4.931189   2.700031   4.675174   3.539124   2.288948
    41  O    6.232059   3.532794   4.080216   2.704406   2.288577
    42  H    5.169040   5.795896   5.335964   6.253470   6.440897
                   36         37         38         39         40
    36  H    0.000000
    37  H    4.952798   0.000000
    38  H    4.278780   2.493354   0.000000
    39  N    2.650098   4.590533   2.653389   0.000000
    40  O    2.392124   5.641959   3.863490   1.218203   0.000000
    41  O    3.860114   4.758703   2.395254   1.218100   2.146364
    42  H    6.321114   5.520287   7.050369   7.659864   8.085268
                   41         42
    41  O    0.000000
    42  H    8.385650   0.000000
 Stoichiometry    C19H18N2O3
 Framework group  C1[X(C19H18N2O3)]
 Deg. of freedom   120
 Full point group                 C1      NOp   1
 RotChk:  IX=2 Diff= 4.56D-15
 Largest Abelian subgroup         C1      NOp   1
 Largest concise Abelian subgroup C1      NOp   1
                         Standard orientation:                         
 ---------------------------------------------------------------------
 Center     Atomic      Atomic             Coordinates (Angstroms)
 Number     Number       Type             X           Y           Z
 ---------------------------------------------------------------------
      1          6           0        4.636506   -2.086513   -0.339125
      2          6           0        3.542257   -1.705870   -1.115241
      3          6           0        2.793217   -0.621217   -0.688705
      4          6           0        3.113717    0.064194    0.483997
      5          6           0        4.193982   -0.321892    1.244317
      6          6           0        4.963288   -1.411037    0.827202
      7          1           0        3.288433   -2.251311   -2.015941
      8          1           0        5.813198   -1.730708    1.418247
      9          1           0        5.234645   -2.934745   -0.652726
     10          1           0        4.445335    0.207143    2.157560
     11          7           0        1.678084   -0.048485   -1.287446
     12          6           0        0.998186    0.755736   -0.306705
     13          6           0        2.154412    1.218308    0.642993
     14          6           0        0.922165   -0.764413   -2.282305
     15          1           0        0.118062   -0.126926   -2.649494
     16          1           0        0.488826   -1.692692   -1.889153
     17          6           0        2.828365    2.481683    0.099485
     18          1           0        3.116906    2.364364   -0.947005
     19          1           0        3.731624    2.676475    0.679751
     20          1           0        2.173806    3.351415    0.191018
     21          6           0        1.682923    1.465139    2.065423
     22          1           0        1.291156    0.560017    2.526457
     23          1           0        0.903832    2.231524    2.083781
     24          1           0        2.518360    1.826625    2.668496
     25          8           0        0.158928   -0.130022    0.496552
     26          6           0       -1.163074   -0.191090    0.364022
     27          6           0        0.203487    1.847886   -0.933915
     28          6           0       -1.127911    1.855271   -0.956286
     29          6           0       -1.882208    0.788787   -0.339299
     30          1           0        0.770871    2.626115   -1.425364
     31          1           0       -1.669376    2.653968   -1.450841
     32          6           0       -3.261534    0.689080   -0.407488
     33          6           0       -1.822639   -1.249663    0.988081
     34          6           0       -3.194762   -1.340403    0.914858
     35          6           0       -3.902746   -0.369228    0.214992
     36          1           0       -3.838415    1.432434   -0.941551
     37          1           0       -1.241058   -1.988079    1.525034
     38          1           0       -3.725353   -2.152830    1.391057
     39          7           0       -5.342691   -0.464390    0.136520
     40          8           0       -5.944449    0.394989   -0.482652
     41          8           0       -5.889418   -1.399767    0.693231
     42          1           0        1.565107   -1.012810   -3.127693
 ---------------------------------------------------------------------
 Rotational constants (GHZ):           0.6154513           0.1288010           0.1230717
 Leave Link  202 at Tue May  7 19:42:51 2024, MaxMem=  2684354560 cpu:               0.5 elap:               0.0
 (Enter /s/ls4/groups/g0130/bin/g16/l301.exe)
 Standard basis: def2TZVP (5D, 7F)
 Ernie: Thresh=  0.10000D-02 Tol=  0.10000D-05 Strict=F.
 AO basis set in the form of general basis input (Overlap normalization):
      1 0
 S   6 1.00       0.000000000000
      0.1357534968D+05  0.6064550360D-03
      0.2035233368D+04  0.4697908888D-02
      0.4632256236D+03  0.2433247765D-01
      0.1312001960D+03  0.9739996831D-01
      0.4285301589D+02  0.3019558425D+00
      0.1558418577D+02  0.6623360914D+00
 S   2 1.00       0.000000000000
      0.6206713851D+01  0.6559530854D+00
      0.2576489653D+01  0.3758563329D+00
 S   1 1.00       0.000000000000
      0.5769633942D+00  0.1000000000D+01
 S   1 1.00       0.000000000000
      0.2297283136D+00  0.1000000000D+01
 S   1 1.00       0.000000000000
      0.9516444003D-01  0.1000000000D+01
 P   4 1.00       0.000000000000
      0.3469723224D+02  0.1132722000D-01
      0.7958262283D+01  0.7616965920D-01
      0.2378082688D+01  0.3019225220D+00
      0.8143320818D+00  0.7278502735D+00
 P   1 1.00       0.000000000000
      0.2888754725D+00  0.1000000000D+01
 P   1 1.00       0.000000000000
      0.1005682367D+00  0.1000000000D+01
 D   1 1.00       0.000000000000
      0.1097000000D+01  0.1000000000D+01
 D   1 1.00       0.000000000000
      0.3180000000D+00  0.1000000000D+01
 F   1 1.00       0.000000000000
      0.7610000000D+00  0.1000000000D+01
 ****
      2 0
 S   6 1.00       0.000000000000
      0.1357534968D+05  0.6064550360D-03
      0.2035233368D+04  0.4697908888D-02
      0.4632256236D+03  0.2433247765D-01
      0.1312001960D+03  0.9739996831D-01
      0.4285301589D+02  0.3019558425D+00
      0.1558418577D+02  0.6623360914D+00
 S   2 1.00       0.000000000000
      0.6206713851D+01  0.6559530854D+00
      0.2576489653D+01  0.3758563329D+00
 S   1 1.00       0.000000000000
      0.5769633942D+00  0.1000000000D+01
 S   1 1.00       0.000000000000
      0.2297283136D+00  0.1000000000D+01
 S   1 1.00       0.000000000000
      0.9516444003D-01  0.1000000000D+01
 P   4 1.00       0.000000000000
      0.3469723224D+02  0.1132722000D-01
      0.7958262283D+01  0.7616965920D-01
      0.2378082688D+01  0.3019225220D+00
      0.8143320818D+00  0.7278502735D+00
 P   1 1.00       0.000000000000
      0.2888754725D+00  0.1000000000D+01
 P   1 1.00       0.000000000000
      0.1005682367D+00  0.1000000000D+01
 D   1 1.00       0.000000000000
      0.1097000000D+01  0.1000000000D+01
 D   1 1.00       0.000000000000
      0.3180000000D+00  0.1000000000D+01
 F   1 1.00       0.000000000000
      0.7610000000D+00  0.1000000000D+01
 ****
      3 0
 S   6 1.00       0.000000000000
      0.1357534968D+05  0.6064550360D-03
      0.2035233368D+04  0.4697908888D-02
      0.4632256236D+03  0.2433247765D-01
      0.1312001960D+03  0.9739996831D-01
      0.4285301589D+02  0.3019558425D+00
      0.1558418577D+02  0.6623360914D+00
 S   2 1.00       0.000000000000
      0.6206713851D+01  0.6559530854D+00
      0.2576489653D+01  0.3758563329D+00
 S   1 1.00       0.000000000000
      0.5769633942D+00  0.1000000000D+01
 S   1 1.00       0.000000000000
      0.2297283136D+00  0.1000000000D+01
 S   1 1.00       0.000000000000
      0.9516444003D-01  0.1000000000D+01
 P   4 1.00       0.000000000000
      0.3469723224D+02  0.1132722000D-01
      0.7958262283D+01  0.7616965920D-01
      0.2378082688D+01  0.3019225220D+00
      0.8143320818D+00  0.7278502735D+00
 P   1 1.00       0.000000000000
      0.2888754725D+00  0.1000000000D+01
 P   1 1.00       0.000000000000
      0.1005682367D+00  0.1000000000D+01
 D   1 1.00       0.000000000000
      0.1097000000D+01  0.1000000000D+01
 D   1 1.00       0.000000000000
      0.3180000000D+00  0.1000000000D+01
 F   1 1.00       0.000000000000
      0.7610000000D+00  0.1000000000D+01
 ****
      4 0
 S   6 1.00       0.000000000000
      0.1357534968D+05  0.6064550360D-03
      0.2035233368D+04  0.4697908888D-02
      0.4632256236D+03  0.2433247765D-01
      0.1312001960D+03  0.9739996831D-01
      0.4285301589D+02  0.3019558425D+00
      0.1558418577D+02  0.6623360914D+00
 S   2 1.00       0.000000000000
      0.6206713851D+01  0.6559530854D+00
      0.2576489653D+01  0.3758563329D+00
 S   1 1.00       0.000000000000
      0.5769633942D+00  0.1000000000D+01
 S   1 1.00       0.000000000000
      0.2297283136D+00  0.1000000000D+01
 S   1 1.00       0.000000000000
      0.9516444003D-01  0.1000000000D+01
 P   4 1.00       0.000000000000
      0.3469723224D+02  0.1132722000D-01
      0.7958262283D+01  0.7616965920D-01
      0.2378082688D+01  0.3019225220D+00
      0.8143320818D+00  0.7278502735D+00
 P   1 1.00       0.000000000000
      0.2888754725D+00  0.1000000000D+01
 P   1 1.00       0.000000000000
      0.1005682367D+00  0.1000000000D+01
 D   1 1.00       0.000000000000
      0.1097000000D+01  0.1000000000D+01
 D   1 1.00       0.000000000000
      0.3180000000D+00  0.1000000000D+01
 F   1 1.00       0.000000000000
      0.7610000000D+00  0.1000000000D+01
 ****
      5 0
 S   6 1.00       0.000000000000
      0.1357534968D+05  0.6064550360D-03
      0.2035233368D+04  0.4697908888D-02
      0.4632256236D+03  0.2433247765D-01
      0.1312001960D+03  0.9739996831D-01
      0.4285301589D+02  0.3019558425D+00
      0.1558418577D+02  0.6623360914D+00
 S   2 1.00       0.000000000000
      0.6206713851D+01  0.6559530854D+00
      0.2576489653D+01  0.3758563329D+00
 S   1 1.00       0.000000000000
      0.5769633942D+00  0.1000000000D+01
 S   1 1.00       0.000000000000
      0.2297283136D+00  0.1000000000D+01
 S   1 1.00       0.000000000000
      0.9516444003D-01  0.1000000000D+01
 P   4 1.00       0.000000000000
      0.3469723224D+02  0.1132722000D-01
      0.7958262283D+01  0.7616965920D-01
      0.2378082688D+01  0.3019225220D+00
      0.8143320818D+00  0.7278502735D+00
 P   1 1.00       0.000000000000
      0.2888754725D+00  0.1000000000D+01
 P   1 1.00       0.000000000000
      0.1005682367D+00  0.1000000000D+01
 D   1 1.00       0.000000000000
      0.1097000000D+01  0.1000000000D+01
 D   1 1.00       0.000000000000
      0.3180000000D+00  0.1000000000D+01
 F   1 1.00       0.000000000000
      0.7610000000D+00  0.1000000000D+01
 ****
      6 0
 S   6 1.00       0.000000000000
      0.1357534968D+05  0.6064550360D-03
      0.2035233368D+04  0.4697908888D-02
      0.4632256236D+03  0.2433247765D-01
      0.1312001960D+03  0.9739996831D-01
      0.4285301589D+02  0.3019558425D+00
      0.1558418577D+02  0.6623360914D+00
 S   2 1.00       0.000000000000
      0.6206713851D+01  0.6559530854D+00
      0.2576489653D+01  0.3758563329D+00
 S   1 1.00       0.000000000000
      0.5769633942D+00  0.1000000000D+01
 S   1 1.00       0.000000000000
      0.2297283136D+00  0.1000000000D+01
 S   1 1.00       0.000000000000
      0.9516444003D-01  0.1000000000D+01
 P   4 1.00       0.000000000000
      0.3469723224D+02  0.1132722000D-01
      0.7958262283D+01  0.7616965920D-01
      0.2378082688D+01  0.3019225220D+00
      0.8143320818D+00  0.7278502735D+00
 P   1 1.00       0.000000000000
      0.2888754725D+00  0.1000000000D+01
 P   1 1.00       0.000000000000
      0.1005682367D+00  0.1000000000D+01
 D   1 1.00       0.000000000000
      0.1097000000D+01  0.1000000000D+01
 D   1 1.00       0.000000000000
      0.3180000000D+00  0.1000000000D+01
 F   1 1.00       0.000000000000
      0.7610000000D+00  0.1000000000D+01
 ****
      7 0
 S   3 1.00       0.000000000000
      0.3406134100D+02  0.2543930721D-01
      0.5123574600D+01  0.1900859489D+00
      0.1164662600D+01  0.8524411301D+00
 S   1 1.00       0.000000000000
      0.3272304100D+00  0.1000000000D+01
 S   1 1.00       0.000000000000
      0.1030724100D+00  0.1000000000D+01
 P   1 1.00       0.000000000000
      0.8000000000D+00  0.1000000000D+01
 ****
      8 0
 S   3 1.00       0.000000000000
      0.3406134100D+02  0.2543930721D-01
      0.5123574600D+01  0.1900859489D+00
      0.1164662600D+01  0.8524411301D+00
 S   1 1.00       0.000000000000
      0.3272304100D+00  0.1000000000D+01
 S   1 1.00       0.000000000000
      0.1030724100D+00  0.1000000000D+01
 P   1 1.00       0.000000000000
      0.8000000000D+00  0.1000000000D+01
 ****
      9 0
 S   3 1.00       0.000000000000
      0.3406134100D+02  0.2543930721D-01
      0.5123574600D+01  0.1900859489D+00
      0.1164662600D+01  0.8524411301D+00
 S   1 1.00       0.000000000000
      0.3272304100D+00  0.1000000000D+01
 S   1 1.00       0.000000000000
      0.1030724100D+00  0.1000000000D+01
 P   1 1.00       0.000000000000
      0.8000000000D+00  0.1000000000D+01
 ****
     10 0
 S   3 1.00       0.000000000000
      0.3406134100D+02  0.2543930721D-01
      0.5123574600D+01  0.1900859489D+00
      0.1164662600D+01  0.8524411301D+00
 S   1 1.00       0.000000000000
      0.3272304100D+00  0.1000000000D+01
 S   1 1.00       0.000000000000
      0.1030724100D+00  0.1000000000D+01
 P   1 1.00       0.000000000000
      0.8000000000D+00  0.1000000000D+01
 ****
     11 0
 S   6 1.00       0.000000000000
      0.1973080065D+05  0.5862640263D-03
      0.2957895874D+04  0.4542882059D-02
      0.6732213360D+03  0.2355841345D-01
      0.1906824949D+03  0.9470919329D-01
      0.6229544190D+02  0.2971978491D+00
      0.2265416118D+02  0.6691624690D+00
 S   2 1.00       0.000000000000
      0.8979147743D+01  0.6459668363D+00
      0.3686300237D+01  0.3870057439D+00
 S   1 1.00       0.000000000000
      0.8466007680D+00  0.1000000000D+01
 S   1 1.00       0.000000000000
      0.3364713377D+00  0.1000000000D+01
 S   1 1.00       0.000000000000
      0.1364765367D+00  0.1000000000D+01
 P   4 1.00       0.000000000000
      0.4920038051D+02  0.1144882510D-01
      0.1134679054D+02  0.7842233797D-01
      0.3427397241D+01  0.3081809474D+00
      0.1178552513D+01  0.7202719637D+00
 P   1 1.00       0.000000000000
      0.4164220497D+00  0.1000000000D+01
 P   1 1.00       0.000000000000
      0.1426082601D+00  0.1000000000D+01
 D   1 1.00       0.000000000000
      0.1654000000D+01  0.1000000000D+01
 D   1 1.00       0.000000000000
      0.4690000000D+00  0.1000000000D+01
 F   1 1.00       0.000000000000
      0.1093000000D+01  0.1000000000D+01
 ****
     12 0
 S   6 1.00       0.000000000000
      0.1357534968D+05  0.6064550360D-03
      0.2035233368D+04  0.4697908888D-02
      0.4632256236D+03  0.2433247765D-01
      0.1312001960D+03  0.9739996831D-01
      0.4285301589D+02  0.3019558425D+00
      0.1558418577D+02  0.6623360914D+00
 S   2 1.00       0.000000000000
      0.6206713851D+01  0.6559530854D+00
      0.2576489653D+01  0.3758563329D+00
 S   1 1.00       0.000000000000
      0.5769633942D+00  0.1000000000D+01
 S   1 1.00       0.000000000000
      0.2297283136D+00  0.1000000000D+01
 S   1 1.00       0.000000000000
      0.9516444003D-01  0.1000000000D+01
 P   4 1.00       0.000000000000
      0.3469723224D+02  0.1132722000D-01
      0.7958262283D+01  0.7616965920D-01
      0.2378082688D+01  0.3019225220D+00
      0.8143320818D+00  0.7278502735D+00
 P   1 1.00       0.000000000000
      0.2888754725D+00  0.1000000000D+01
 P   1 1.00       0.000000000000
      0.1005682367D+00  0.1000000000D+01
 D   1 1.00       0.000000000000
      0.1097000000D+01  0.1000000000D+01
 D   1 1.00       0.000000000000
      0.3180000000D+00  0.1000000000D+01
 F   1 1.00       0.000000000000
      0.7610000000D+00  0.1000000000D+01
 ****
     13 0
 S   6 1.00       0.000000000000
      0.1357534968D+05  0.6064550360D-03
      0.2035233368D+04  0.4697908888D-02
      0.4632256236D+03  0.2433247765D-01
      0.1312001960D+03  0.9739996831D-01
      0.4285301589D+02  0.3019558425D+00
      0.1558418577D+02  0.6623360914D+00
 S   2 1.00       0.000000000000
      0.6206713851D+01  0.6559530854D+00
      0.2576489653D+01  0.3758563329D+00
 S   1 1.00       0.000000000000
      0.5769633942D+00  0.1000000000D+01
 S   1 1.00       0.000000000000
      0.2297283136D+00  0.1000000000D+01
 S   1 1.00       0.000000000000
      0.9516444003D-01  0.1000000000D+01
 P   4 1.00       0.000000000000
      0.3469723224D+02  0.1132722000D-01
      0.7958262283D+01  0.7616965920D-01
      0.2378082688D+01  0.3019225220D+00
      0.8143320818D+00  0.7278502735D+00
 P   1 1.00       0.000000000000
      0.2888754725D+00  0.1000000000D+01
 P   1 1.00       0.000000000000
      0.1005682367D+00  0.1000000000D+01
 D   1 1.00       0.000000000000
      0.1097000000D+01  0.1000000000D+01
 D   1 1.00       0.000000000000
      0.3180000000D+00  0.1000000000D+01
 F   1 1.00       0.000000000000
      0.7610000000D+00  0.1000000000D+01
 ****
     14 0
 S   6 1.00       0.000000000000
      0.1357534968D+05  0.6064550360D-03
      0.2035233368D+04  0.4697908888D-02
      0.4632256236D+03  0.2433247765D-01
      0.1312001960D+03  0.9739996831D-01
      0.4285301589D+02  0.3019558425D+00
      0.1558418577D+02  0.6623360914D+00
 S   2 1.00       0.000000000000
      0.6206713851D+01  0.6559530854D+00
      0.2576489653D+01  0.3758563329D+00
 S   1 1.00       0.000000000000
      0.5769633942D+00  0.1000000000D+01
 S   1 1.00       0.000000000000
      0.2297283136D+00  0.1000000000D+01
 S   1 1.00       0.000000000000
      0.9516444003D-01  0.1000000000D+01
 P   4 1.00       0.000000000000
      0.3469723224D+02  0.1132722000D-01
      0.7958262283D+01  0.7616965920D-01
      0.2378082688D+01  0.3019225220D+00
      0.8143320818D+00  0.7278502735D+00
 P   1 1.00       0.000000000000
      0.2888754725D+00  0.1000000000D+01
 P   1 1.00       0.000000000000
      0.1005682367D+00  0.1000000000D+01
 D   1 1.00       0.000000000000
      0.1097000000D+01  0.1000000000D+01
 D   1 1.00       0.000000000000
      0.3180000000D+00  0.1000000000D+01
 F   1 1.00       0.000000000000
      0.7610000000D+00  0.1000000000D+01
 ****
     15 0
 S   3 1.00       0.000000000000
      0.3406134100D+02  0.2543930721D-01
      0.5123574600D+01  0.1900859489D+00
      0.1164662600D+01  0.8524411301D+00
 S   1 1.00       0.000000000000
      0.3272304100D+00  0.1000000000D+01
 S   1 1.00       0.000000000000
      0.1030724100D+00  0.1000000000D+01
 P   1 1.00       0.000000000000
      0.8000000000D+00  0.1000000000D+01
 ****
     16 0
 S   3 1.00       0.000000000000
      0.3406134100D+02  0.2543930721D-01
      0.5123574600D+01  0.1900859489D+00
      0.1164662600D+01  0.8524411301D+00
 S   1 1.00       0.000000000000
      0.3272304100D+00  0.1000000000D+01
 S   1 1.00       0.000000000000
      0.1030724100D+00  0.1000000000D+01
 P   1 1.00       0.000000000000
      0.8000000000D+00  0.1000000000D+01
 ****
     17 0
 S   6 1.00       0.000000000000
      0.1357534968D+05  0.6064550360D-03
      0.2035233368D+04  0.4697908888D-02
      0.4632256236D+03  0.2433247765D-01
      0.1312001960D+03  0.9739996831D-01
      0.4285301589D+02  0.3019558425D+00
      0.1558418577D+02  0.6623360914D+00
 S   2 1.00       0.000000000000
      0.6206713851D+01  0.6559530854D+00
      0.2576489653D+01  0.3758563329D+00
 S   1 1.00       0.000000000000
      0.5769633942D+00  0.1000000000D+01
 S   1 1.00       0.000000000000
      0.2297283136D+00  0.1000000000D+01
 S   1 1.00       0.000000000000
      0.9516444003D-01  0.1000000000D+01
 P   4 1.00       0.000000000000
      0.3469723224D+02  0.1132722000D-01
      0.7958262283D+01  0.7616965920D-01
      0.2378082688D+01  0.3019225220D+00
      0.8143320818D+00  0.7278502735D+00
 P   1 1.00       0.000000000000
      0.2888754725D+00  0.1000000000D+01
 P   1 1.00       0.000000000000
      0.1005682367D+00  0.1000000000D+01
 D   1 1.00       0.000000000000
      0.1097000000D+01  0.1000000000D+01
 D   1 1.00       0.000000000000
      0.3180000000D+00  0.1000000000D+01
 F   1 1.00       0.000000000000
      0.7610000000D+00  0.1000000000D+01
 ****
     18 0
 S   3 1.00       0.000000000000
      0.3406134100D+02  0.2543930721D-01
      0.5123574600D+01  0.1900859489D+00
      0.1164662600D+01  0.8524411301D+00
 S   1 1.00       0.000000000000
      0.3272304100D+00  0.1000000000D+01
 S   1 1.00       0.000000000000
      0.1030724100D+00  0.1000000000D+01
 P   1 1.00       0.000000000000
      0.8000000000D+00  0.1000000000D+01
 ****
     19 0
 S   3 1.00       0.000000000000
      0.3406134100D+02  0.2543930721D-01
      0.5123574600D+01  0.1900859489D+00
      0.1164662600D+01  0.8524411301D+00
 S   1 1.00       0.000000000000
      0.3272304100D+00  0.1000000000D+01
 S   1 1.00       0.000000000000
      0.1030724100D+00  0.1000000000D+01
 P   1 1.00       0.000000000000
      0.8000000000D+00  0.1000000000D+01
 ****
     20 0
 S   3 1.00       0.000000000000
      0.3406134100D+02  0.2543930721D-01
      0.5123574600D+01  0.1900859489D+00
      0.1164662600D+01  0.8524411301D+00
 S   1 1.00       0.000000000000
      0.3272304100D+00  0.1000000000D+01
 S   1 1.00       0.000000000000
      0.1030724100D+00  0.1000000000D+01
 P   1 1.00       0.000000000000
      0.8000000000D+00  0.1000000000D+01
 ****
     21 0
 S   6 1.00       0.000000000000
      0.1357534968D+05  0.6064550360D-03
      0.2035233368D+04  0.4697908888D-02
      0.4632256236D+03  0.2433247765D-01
      0.1312001960D+03  0.9739996831D-01
      0.4285301589D+02  0.3019558425D+00
      0.1558418577D+02  0.6623360914D+00
 S   2 1.00       0.000000000000
      0.6206713851D+01  0.6559530854D+00
      0.2576489653D+01  0.3758563329D+00
 S   1 1.00       0.000000000000
      0.5769633942D+00  0.1000000000D+01
 S   1 1.00       0.000000000000
      0.2297283136D+00  0.1000000000D+01
 S   1 1.00       0.000000000000
      0.9516444003D-01  0.1000000000D+01
 P   4 1.00       0.000000000000
      0.3469723224D+02  0.1132722000D-01
      0.7958262283D+01  0.7616965920D-01
      0.2378082688D+01  0.3019225220D+00
      0.8143320818D+00  0.7278502735D+00
 P   1 1.00       0.000000000000
      0.2888754725D+00  0.1000000000D+01
 P   1 1.00       0.000000000000
      0.1005682367D+00  0.1000000000D+01
 D   1 1.00       0.000000000000
      0.1097000000D+01  0.1000000000D+01
 D   1 1.00       0.000000000000
      0.3180000000D+00  0.1000000000D+01
 F   1 1.00       0.000000000000
      0.7610000000D+00  0.1000000000D+01
 ****
     22 0
 S   3 1.00       0.000000000000
      0.3406134100D+02  0.2543930721D-01
      0.5123574600D+01  0.1900859489D+00
      0.1164662600D+01  0.8524411301D+00
 S   1 1.00       0.000000000000
      0.3272304100D+00  0.1000000000D+01
 S   1 1.00       0.000000000000
      0.1030724100D+00  0.1000000000D+01
 P   1 1.00       0.000000000000
      0.8000000000D+00  0.1000000000D+01
 ****
     23 0
 S   3 1.00       0.000000000000
      0.3406134100D+02  0.2543930721D-01
      0.5123574600D+01  0.1900859489D+00
      0.1164662600D+01  0.8524411301D+00
 S   1 1.00       0.000000000000
      0.3272304100D+00  0.1000000000D+01
 S   1 1.00       0.000000000000
      0.1030724100D+00  0.1000000000D+01
 P   1 1.00       0.000000000000
      0.8000000000D+00  0.1000000000D+01
 ****
     24 0
 S   3 1.00       0.000000000000
      0.3406134100D+02  0.2543930721D-01
      0.5123574600D+01  0.1900859489D+00
      0.1164662600D+01  0.8524411301D+00
 S   1 1.00       0.000000000000
      0.3272304100D+00  0.1000000000D+01
 S   1 1.00       0.000000000000
      0.1030724100D+00  0.1000000000D+01
 P   1 1.00       0.000000000000
      0.8000000000D+00  0.1000000000D+01
 ****
     25 0
 S   6 1.00       0.000000000000
      0.2703238263D+05  0.5722733521D-03
      0.4052387139D+04  0.4435323349D-02
      0.9223272271D+03  0.2302010771D-01
      0.2612407099D+03  0.9282249067D-01
      0.8535464135D+02  0.2937850001D+00
      0.3103503524D+02  0.6740160450D+00
 S   2 1.00       0.000000000000
      0.1226086073D+02  0.6383993703D+00
      0.4998707601D+01  0.3953458713D+00
 S   1 1.00       0.000000000000
      0.1170310816D+01  0.1000000000D+01
 S   1 1.00       0.000000000000
      0.4647474099D+00  0.1000000000D+01
 S   1 1.00       0.000000000000
      0.1850453636D+00  0.1000000000D+01
 P   4 1.00       0.000000000000
      0.6327495480D+02  0.1201833222D-01
      0.1462704938D+02  0.8300542179D-01
      0.4450122346D+01  0.3199174393D+00
      0.1527579965D+01  0.7071554292D+00
 P   1 1.00       0.000000000000
      0.5293511794D+00  0.1000000000D+01
 P   1 1.00       0.000000000000
      0.1747842127D+00  0.1000000000D+01
 D   1 1.00       0.000000000000
      0.2314000000D+01  0.1000000000D+01
 D   1 1.00       0.000000000000
      0.6450000000D+00  0.1000000000D+01
 F   1 1.00       0.000000000000
      0.1428000000D+01  0.1000000000D+01
 ****
     26 0
 S   6 1.00       0.000000000000
      0.1357534968D+05  0.6064550360D-03
      0.2035233368D+04  0.4697908888D-02
      0.4632256236D+03  0.2433247765D-01
      0.1312001960D+03  0.9739996831D-01
      0.4285301589D+02  0.3019558425D+00
      0.1558418577D+02  0.6623360914D+00
 S   2 1.00       0.000000000000
      0.6206713851D+01  0.6559530854D+00
      0.2576489653D+01  0.3758563329D+00
 S   1 1.00       0.000000000000
      0.5769633942D+00  0.1000000000D+01
 S   1 1.00       0.000000000000
      0.2297283136D+00  0.1000000000D+01
 S   1 1.00       0.000000000000
      0.9516444003D-01  0.1000000000D+01
 P   4 1.00       0.000000000000
      0.3469723224D+02  0.1132722000D-01
      0.7958262283D+01  0.7616965920D-01
      0.2378082688D+01  0.3019225220D+00
      0.8143320818D+00  0.7278502735D+00
 P   1 1.00       0.000000000000
      0.2888754725D+00  0.1000000000D+01
 P   1 1.00       0.000000000000
      0.1005682367D+00  0.1000000000D+01
 D   1 1.00       0.000000000000
      0.1097000000D+01  0.1000000000D+01
 D   1 1.00       0.000000000000
      0.3180000000D+00  0.1000000000D+01
 F   1 1.00       0.000000000000
      0.7610000000D+00  0.1000000000D+01
 ****
     27 0
 S   6 1.00       0.000000000000
      0.1357534968D+05  0.6064550360D-03
      0.2035233368D+04  0.4697908888D-02
      0.4632256236D+03  0.2433247765D-01
      0.1312001960D+03  0.9739996831D-01
      0.4285301589D+02  0.3019558425D+00
      0.1558418577D+02  0.6623360914D+00
 S   2 1.00       0.000000000000
      0.6206713851D+01  0.6559530854D+00
      0.2576489653D+01  0.3758563329D+00
 S   1 1.00       0.000000000000
      0.5769633942D+00  0.1000000000D+01
 S   1 1.00       0.000000000000
      0.2297283136D+00  0.1000000000D+01
 S   1 1.00       0.000000000000
      0.9516444003D-01  0.1000000000D+01
 P   4 1.00       0.000000000000
      0.3469723224D+02  0.1132722000D-01
      0.7958262283D+01  0.7616965920D-01
      0.2378082688D+01  0.3019225220D+00
      0.8143320818D+00  0.7278502735D+00
 P   1 1.00       0.000000000000
      0.2888754725D+00  0.1000000000D+01
 P   1 1.00       0.000000000000
      0.1005682367D+00  0.1000000000D+01
 D   1 1.00       0.000000000000
      0.1097000000D+01  0.1000000000D+01
 D   1 1.00       0.000000000000
      0.3180000000D+00  0.1000000000D+01
 F   1 1.00       0.000000000000
      0.7610000000D+00  0.1000000000D+01
 ****
     28 0
 S   6 1.00       0.000000000000
      0.1357534968D+05  0.6064550360D-03
      0.2035233368D+04  0.4697908888D-02
      0.4632256236D+03  0.2433247765D-01
      0.1312001960D+03  0.9739996831D-01
      0.4285301589D+02  0.3019558425D+00
      0.1558418577D+02  0.6623360914D+00
 S   2 1.00       0.000000000000
      0.6206713851D+01  0.6559530854D+00
      0.2576489653D+01  0.3758563329D+00
 S   1 1.00       0.000000000000
      0.5769633942D+00  0.1000000000D+01
 S   1 1.00       0.000000000000
      0.2297283136D+00  0.1000000000D+01
 S   1 1.00       0.000000000000
      0.9516444003D-01  0.1000000000D+01
 P   4 1.00       0.000000000000
      0.3469723224D+02  0.1132722000D-01
      0.7958262283D+01  0.7616965920D-01
      0.2378082688D+01  0.3019225220D+00
      0.8143320818D+00  0.7278502735D+00
 P   1 1.00       0.000000000000
      0.2888754725D+00  0.1000000000D+01
 P   1 1.00       0.000000000000
      0.1005682367D+00  0.1000000000D+01
 D   1 1.00       0.000000000000
      0.1097000000D+01  0.1000000000D+01
 D   1 1.00       0.000000000000
      0.3180000000D+00  0.1000000000D+01
 F   1 1.00       0.000000000000
      0.7610000000D+00  0.1000000000D+01
 ****
     29 0
 S   6 1.00       0.000000000000
      0.1357534968D+05  0.6064550360D-03
      0.2035233368D+04  0.4697908888D-02
      0.4632256236D+03  0.2433247765D-01
      0.1312001960D+03  0.9739996831D-01
      0.4285301589D+02  0.3019558425D+00
      0.1558418577D+02  0.6623360914D+00
 S   2 1.00       0.000000000000
      0.6206713851D+01  0.6559530854D+00
      0.2576489653D+01  0.3758563329D+00
 S   1 1.00       0.000000000000
      0.5769633942D+00  0.1000000000D+01
 S   1 1.00       0.000000000000
      0.2297283136D+00  0.1000000000D+01
 S   1 1.00       0.000000000000
      0.9516444003D-01  0.1000000000D+01
 P   4 1.00       0.000000000000
      0.3469723224D+02  0.1132722000D-01
      0.7958262283D+01  0.7616965920D-01
      0.2378082688D+01  0.3019225220D+00
      0.8143320818D+00  0.7278502735D+00
 P   1 1.00       0.000000000000
      0.2888754725D+00  0.1000000000D+01
 P   1 1.00       0.000000000000
      0.1005682367D+00  0.1000000000D+01
 D   1 1.00       0.000000000000
      0.1097000000D+01  0.1000000000D+01
 D   1 1.00       0.000000000000
      0.3180000000D+00  0.1000000000D+01
 F   1 1.00       0.000000000000
      0.7610000000D+00  0.1000000000D+01
 ****
     30 0
 S   3 1.00       0.000000000000
      0.3406134100D+02  0.2543930721D-01
      0.5123574600D+01  0.1900859489D+00
      0.1164662600D+01  0.8524411301D+00
 S   1 1.00       0.000000000000
      0.3272304100D+00  0.1000000000D+01
 S   1 1.00       0.000000000000
      0.1030724100D+00  0.1000000000D+01
 P   1 1.00       0.000000000000
      0.8000000000D+00  0.1000000000D+01
 ****
     31 0
 S   3 1.00       0.000000000000
      0.3406134100D+02  0.2543930721D-01
      0.5123574600D+01  0.1900859489D+00
      0.1164662600D+01  0.8524411301D+00
 S   1 1.00       0.000000000000
      0.3272304100D+00  0.1000000000D+01
 S   1 1.00       0.000000000000
      0.1030724100D+00  0.1000000000D+01
 P   1 1.00       0.000000000000
      0.8000000000D+00  0.1000000000D+01
 ****
     32 0
 S   6 1.00       0.000000000000
      0.1357534968D+05  0.6064550360D-03
      0.2035233368D+04  0.4697908888D-02
      0.4632256236D+03  0.2433247765D-01
      0.1312001960D+03  0.9739996831D-01
      0.4285301589D+02  0.3019558425D+00
      0.1558418577D+02  0.6623360914D+00
 S   2 1.00       0.000000000000
      0.6206713851D+01  0.6559530854D+00
      0.2576489653D+01  0.3758563329D+00
 S   1 1.00       0.000000000000
[...]
     7  H    0.000005  -0.000003   0.000039   0.000001  -0.000001  -0.000001
     8  H   -0.000000  -0.000002   0.000001   0.000004  -0.000001  -0.000009
     9  H   -0.000001   0.000000  -0.000002  -0.000000   0.000000   0.000000
    10  H    0.001101  -0.000115   0.003190  -0.000145  -0.000147   0.001735
    11  N   -0.000306   0.000699   0.006792   0.000175  -0.000100  -0.000120
    12  C    0.010809  -0.028922  -0.030520  -0.015023  -0.006338   0.011696
    13  C   -0.020992  -0.024087   0.284415  -0.039475  -0.051299  -0.025827
    14  C    0.000069  -0.000086  -0.000613  -0.000031  -0.000007   0.000016
    15  H    0.000003   0.000026  -0.000156  -0.000002  -0.000004   0.000003
    16  H   -0.000001  -0.000007   0.000076   0.000003   0.000005  -0.000004
    17  C    0.399221   0.404637  -0.061543   0.009351  -0.004916  -0.006660
    18  H   -0.016385  -0.025159   0.010273  -0.000374   0.000083  -0.000064
    19  H    0.514238  -0.018279  -0.007755  -0.000113  -0.000273   0.002378
    20  H   -0.018279   0.532624  -0.005636  -0.000114   0.002188   0.000070
    21  C   -0.007755  -0.005636   5.045638   0.415238   0.414132   0.400254
    22  H   -0.000113  -0.000114   0.415238   0.519102  -0.019195  -0.021605
    23  H   -0.000273   0.002188   0.414132  -0.019195   0.530901  -0.021992
    24  H    0.002378   0.000070   0.400254  -0.021605  -0.021992   0.529888
    25  O   -0.000214   0.000067   0.002474   0.005537   0.000324   0.001288
    26  C   -0.000040  -0.000077   0.001052  -0.001480  -0.000555   0.000245
    27  C    0.000557   0.007071  -0.000701   0.000867   0.003793  -0.000557
    28  C   -0.000100   0.000603  -0.001687   0.000315   0.000810   0.000014
    29  C    0.000029   0.000161  -0.000182   0.000163  -0.000217  -0.000049
    30  H    0.000392  -0.001218   0.001243  -0.000125   0.000195  -0.000055
    31  H   -0.000003   0.000023  -0.000034   0.000007   0.000021   0.000001
    32  C    0.000000   0.000002   0.000010  -0.000034  -0.000052  -0.000002
    33  C   -0.000003  -0.000013  -0.000738   0.000810   0.000157  -0.000017
    34  C    0.000000   0.000000  -0.000036   0.000022  -0.000001  -0.000001
    35  C   -0.000000   0.000000   0.000015   0.000010   0.000004   0.000000
    36  H   -0.000000   0.000000  -0.000001   0.000000  -0.000000   0.000000
    37  H   -0.000000  -0.000000  -0.000234   0.000311   0.000008   0.000001
    38  H   -0.000000   0.000000   0.000001  -0.000001   0.000000   0.000000
    39  N   -0.000000   0.000000   0.000000  -0.000000  -0.000000   0.000000
    40  O   -0.000000   0.000000   0.000000   0.000000  -0.000000  -0.000000
    41  O    0.000000   0.000000   0.000000   0.000000  -0.000000  -0.000000
    42  H   -0.000009   0.000008   0.000020   0.000000  -0.000001   0.000001
              25         26         27         28         29         30
     1  C   -0.000349   0.000126  -0.000119   0.000025   0.000003   0.000001
     2  C   -0.000794  -0.000020  -0.001712   0.000016  -0.000335   0.000002
     3  C    0.025910  -0.009927   0.026723  -0.003411   0.001607  -0.000611
     4  C   -0.003714   0.004828  -0.033750   0.002160  -0.000851  -0.000370
     5  C   -0.004095   0.000522  -0.002673   0.000271  -0.000088  -0.000048
     6  C    0.000314   0.000059   0.000098  -0.000010   0.000003   0.000001
     7  H    0.000059  -0.000064   0.000103  -0.000034   0.000003   0.000000
     8  H   -0.000001   0.000000  -0.000000   0.000000   0.000000  -0.000000
     9  H   -0.000002   0.000001  -0.000002   0.000000  -0.000000   0.000000
    10  H   -0.000080  -0.000006  -0.000050  -0.000003   0.000002  -0.000003
    11  N   -0.078850   0.044398  -0.074326   0.009535  -0.007478   0.002709
    12  C    0.227028  -0.001864   0.139648   0.013960  -0.058172  -0.054016
    13  C   -0.035864  -0.015765   0.042186  -0.004876   0.006474  -0.007277
    14  C    0.005287  -0.004775  -0.011478  -0.012069   0.011317   0.000408
    15  H   -0.000185  -0.009468   0.004275  -0.009793   0.005337   0.000620
    16  H    0.002813  -0.002968   0.003320  -0.001970  -0.002252  -0.000060
    17  C    0.004472   0.000480  -0.010107   0.001482  -0.000521   0.001749
    18  H    0.000039   0.000151  -0.006649   0.000849  -0.000185  -0.000094
    19  H   -0.000214  -0.000040   0.000557  -0.000100   0.000029   0.000392
    20  H    0.000067  -0.000077   0.007071   0.000603   0.000161  -0.001218
    21  C    0.002474   0.001052  -0.000701  -0.001687  -0.000182   0.001243
    22  H    0.005537  -0.001480   0.000867   0.000315   0.000163  -0.000125
    23  H    0.000324  -0.000555   0.003793   0.000810  -0.000217   0.000195
    24  H    0.001288   0.000245  -0.000557   0.000014  -0.000049  -0.000055
    25  O    7.858299   0.340843  -0.029952   0.000539  -0.060967   0.003731
    26  C    0.340843   5.109973  -0.086981  -0.049566   0.211736  -0.000150
    27  C   -0.029952  -0.086981   5.428585   0.452044   0.054983   0.444030
    28  C    0.000539  -0.049566   0.452044   5.233443   0.270478  -0.041244
    29  C   -0.060967   0.211736   0.054983   0.270478   5.140832   0.010610
    30  H    0.003731  -0.000150   0.444030  -0.041244   0.010610   0.489790
    31  H   -0.000492   0.002993  -0.051576   0.458738  -0.065534  -0.008309
    32  C    0.007195   0.069961   0.010768  -0.134679   0.293689  -0.000384
    33  C   -0.033251   0.308396   0.003324   0.023792   0.044070  -0.000118
    34  C    0.004909   0.085244   0.000670  -0.005674  -0.127254  -0.000000
    35  C   -0.000120  -0.163128  -0.001472   0.026246   0.075030   0.000006
    36  H   -0.000114   0.012460   0.001140  -0.007849  -0.048490  -0.000036
    37  H    0.005760  -0.079210   0.000204  -0.000277   0.017167  -0.000010
    38  H   -0.000116   0.011940  -0.000019   0.000097  -0.002915   0.000000
    39  N    0.000003   0.000889  -0.000008  -0.000431   0.003483  -0.000000
    40  O    0.000000   0.002522  -0.000019  -0.000931  -0.005378   0.000000
    41  O    0.000000   0.001367  -0.000001  -0.000024  -0.002802   0.000000
    42  H   -0.000798   0.000900  -0.003373   0.001455  -0.000086  -0.000005
              31         32         33         34         35         36
     1  C    0.000000  -0.000000  -0.000054  -0.000003   0.000000  -0.000000
     2  C   -0.000002  -0.000002   0.000938  -0.000000  -0.000001  -0.000000
     3  C   -0.000013  -0.000008   0.002375   0.000095   0.000044   0.000003
     4  C    0.000093  -0.000027  -0.001352  -0.000038   0.000006  -0.000002
     5  C    0.000000   0.000001  -0.000087  -0.000007  -0.000000  -0.000000
     6  C    0.000000  -0.000000  -0.000019  -0.000000   0.000000   0.000000
     7  H   -0.000000   0.000001   0.000009   0.000001   0.000000   0.000000
     8  H   -0.000000   0.000000  -0.000000   0.000000  -0.000000   0.000000
     9  H   -0.000000   0.000000   0.000000  -0.000000  -0.000000  -0.000000
    10  H   -0.000000   0.000000  -0.000002  -0.000000  -0.000000   0.000000
    11  N   -0.000403  -0.001246  -0.001511  -0.000790   0.000241  -0.000018
    12  C    0.012592  -0.003881  -0.015909   0.000759  -0.000517   0.000070
    13  C   -0.000235   0.000191   0.000414   0.000220  -0.000040   0.000005
    14  C   -0.000300   0.001890   0.000309  -0.000641   0.000219  -0.000080
    15  H    0.000242  -0.000802  -0.001125   0.000105   0.000267  -0.000008
    16  H   -0.000087   0.000917   0.004164   0.000188   0.000117  -0.000004
    17  C    0.000037  -0.000033   0.000174  -0.000003   0.000002   0.000000
    18  H   -0.000011   0.000001   0.000007   0.000000  -0.000000   0.000000
    19  H   -0.000003   0.000000  -0.000003   0.000000  -0.000000  -0.000000
    20  H    0.000023   0.000002  -0.000013   0.000000   0.000000   0.000000
    21  C   -0.000034   0.000010  -0.000738  -0.000036   0.000015  -0.000001
    22  H    0.000007  -0.000034   0.000810   0.000022   0.000010   0.000000
    23  H    0.000021  -0.000052   0.000157  -0.000001   0.000004  -0.000000
    24  H    0.000001  -0.000002  -0.000017  -0.000001   0.000000   0.000000
    25  O   -0.000492   0.007195  -0.033251   0.004909  -0.000120  -0.000114
    26  C    0.002993   0.069961   0.308396   0.085244  -0.163128   0.012460
    27  C   -0.051576   0.010768   0.003324   0.000670  -0.001472   0.001140
    28  C    0.458738  -0.134679   0.023792  -0.005674   0.026246  -0.007849
    29  C   -0.065534   0.293689   0.044070  -0.127254   0.075030  -0.048490
    30  H   -0.008309  -0.000384  -0.000118  -0.000000   0.000006  -0.000036
    31  H    0.502950  -0.004891   0.000052  -0.000164   0.002596   0.001858
    32  C   -0.004891   5.539339  -0.149409  -0.022524   0.255758   0.433616
    33  C    0.000052  -0.149409   5.248687   0.332959   0.081057  -0.003153
    34  C   -0.000164  -0.022524   0.332959   5.199183   0.277311   0.006265
    35  C    0.002596   0.255758   0.081057   0.277311   5.278581  -0.054349
    36  H    0.001858   0.433616  -0.003153   0.006265  -0.054349   0.469046
    37  H    0.000020  -0.004415   0.455555  -0.053718   0.016083   0.000043
    38  H   -0.000003   0.007066  -0.042635   0.428499  -0.051395  -0.000312
    39  N   -0.000016  -0.060102   0.002268  -0.048838   0.437877  -0.005707
    40  O   -0.000034   0.030856  -0.002429   0.025596  -0.143415   0.026959
    41  O   -0.000001   0.025182  -0.002307   0.032480  -0.142853   0.001189
    42  H    0.000037  -0.000184   0.000032  -0.000038   0.000008  -0.000000
              37         38         39         40         41         42
     1  C   -0.000013   0.000000   0.000000  -0.000000   0.000000   0.002379
     2  C    0.000037   0.000000  -0.000000   0.000000  -0.000000  -0.001677
     3  C    0.000524  -0.000004  -0.000000  -0.000000   0.000000  -0.014600
     4  C    0.000051   0.000001   0.000000  -0.000000   0.000000   0.004182
     5  C   -0.000017   0.000000  -0.000000  -0.000000   0.000000   0.000506
     6  C    0.000007  -0.000000   0.000000   0.000000  -0.000000  -0.000405
     7  H    0.000002  -0.000000   0.000000  -0.000000  -0.000000  -0.002009
     8  H   -0.000000  -0.000000   0.000000  -0.000000  -0.000000  -0.000001
     9  H   -0.000000   0.000000  -0.000000  -0.000000   0.000000   0.000014
    10  H   -0.000000  -0.000000   0.000000  -0.000000  -0.000000   0.000002
    11  N   -0.000228   0.000001   0.000000  -0.000000   0.000000  -0.023921
    12  C   -0.000904   0.000015   0.000007   0.000000  -0.000001   0.007987
    13  C    0.000164  -0.000002  -0.000000   0.000000  -0.000000  -0.002287
    14  C   -0.000049  -0.000001  -0.000005   0.000002  -0.000001   0.390931
    15  H    0.000005  -0.000001   0.000002   0.000000   0.000000  -0.008634
    16  H    0.000125   0.000005  -0.000009  -0.000002  -0.000000  -0.041531
    17  C    0.000012   0.000000  -0.000000  -0.000000  -0.000000   0.000084
    18  H   -0.000000   0.000000  -0.000000   0.000000   0.000000  -0.000166
    19  H   -0.000000  -0.000000  -0.000000  -0.000000   0.000000  -0.000009
    20  H   -0.000000   0.000000   0.000000   0.000000   0.000000   0.000008
    21  C   -0.000234   0.000001   0.000000   0.000000   0.000000   0.000020
    22  H    0.000311  -0.000001  -0.000000   0.000000   0.000000   0.000000
    23  H    0.000008   0.000000  -0.000000  -0.000000  -0.000000  -0.000001
    24  H    0.000001   0.000000   0.000000  -0.000000  -0.000000   0.000001
    25  O    0.005760  -0.000116   0.000003   0.000000   0.000000  -0.000798
    26  C   -0.079210   0.011940   0.000889   0.002522   0.001367   0.000900
    27  C    0.000204  -0.000019  -0.000008  -0.000019  -0.000001  -0.003373
    28  C   -0.000277   0.000097  -0.000431  -0.000931  -0.000024   0.001455
    29  C    0.017167  -0.002915   0.003483  -0.005378  -0.002802  -0.000086
    30  H   -0.000010   0.000000  -0.000000   0.000000   0.000000  -0.000005
    31  H    0.000020  -0.000003  -0.000016  -0.000034  -0.000001   0.000037
    32  C   -0.004415   0.007066  -0.060102   0.030856   0.025182  -0.000184
    33  C    0.455555  -0.042635   0.002268  -0.002429  -0.002307   0.000032
    34  C   -0.053718   0.428499  -0.048838   0.025596   0.032480  -0.000038
    35  C    0.016083  -0.051395   0.437877  -0.143415  -0.142853   0.000008
    36  H    0.000043  -0.000312  -0.005707   0.026959   0.001189  -0.000000
    37  H    0.503452  -0.008389  -0.000130   0.000000  -0.000120  -0.000000
    38  H   -0.008389   0.472208  -0.006106   0.001021   0.023365  -0.000000
    39  N   -0.000130  -0.006106   5.462339   0.382011   0.381440   0.000000
    40  O    0.000000   0.001021   0.382011   8.165034  -0.112707   0.000000
    41  O   -0.000120   0.023365   0.381440  -0.112707   8.165531   0.000000
    42  H   -0.000000  -0.000000   0.000000   0.000000   0.000000   0.537703
 Mulliken charges:
               1
     1  C   -0.123039
     2  C   -0.333917
     3  C    0.107777
     4  C   -0.100193
     5  C   -0.239616
     6  C   -0.187061
     7  H    0.138691
     8  H    0.127113
     9  H    0.132758
    10  H    0.128496
    11  N   -0.000653
    12  C    0.390742
    13  C    0.276612
    14  C   -0.351250
    15  H    0.164508
    16  H    0.139148
    17  C   -0.458236
    18  H    0.153759
    19  H    0.146846
    20  H    0.142132
    21  C   -0.428918
    22  H    0.143194
    23  H    0.137728
    24  H    0.140523
    25  O   -0.246933
    26  C    0.214959
    27  C   -0.308867
    28  C   -0.222244
    29  C    0.236578
    30  H    0.158645
    31  H    0.149847
    32  C   -0.293766
    33  C   -0.255422
    34  C   -0.134774
    35  C    0.105812
    36  H    0.167469
    37  H    0.148185
    38  H    0.167679
    39  N    0.451034
    40  O   -0.369087
    41  O   -0.369737
    42  H    0.153475
 Sum of Mulliken charges =  -0.00000
 Mulliken charges with hydrogens summed into heavy atoms:
               1
     1  C    0.009719
     2  C   -0.195225
     3  C    0.107777
     4  C   -0.100193
     5  C   -0.111120
     6  C   -0.059947
    11  N   -0.000653
    12  C    0.390742
    13  C    0.276612
    14  C    0.105882
    17  C   -0.015498
    21  C   -0.007472
    25  O   -0.246933
    26  C    0.214959
    27  C   -0.150222
    28  C   -0.072397
    29  C    0.236578
    32  C   -0.126297
    33  C   -0.107237
    34  C    0.032904
    35  C    0.105812
    39  N    0.451034
    40  O   -0.369087
    41  O   -0.369737
 Electronic spatial extent (au):  <R**2>=           8538.9773
 Charge=             -0.0000 electrons
 Dipole moment (field-independent basis, Debye):
    X=              5.4607    Y=              3.2113    Z=             -1.1128  Tot=              6.4320
 Quadrupole moment (field-independent basis, Debye-Ang):
   XX=           -195.3371   YY=           -131.0948   ZZ=           -133.6695
   XY=             -2.5060   XZ=              0.1614   YZ=             -1.1051
 Traceless Quadrupole moment (field-independent basis, Debye-Ang):
   XX=            -41.9700   YY=             22.2724   ZZ=             19.6976
   XY=             -2.5060   XZ=              0.1614   YZ=             -1.1051
 Octapole moment (field-independent basis, Debye-Ang**2):
  XXX=            311.2775  YYY=             10.8283  ZZZ=             -4.9897  XYY=              2.1223
  XXY=             59.3269  XXZ=             31.9226  XZZ=            -12.4589  YZZ=             -3.5334
  YYZ=            -16.0996  XYZ=             10.6118
 Hexadecapole moment (field-independent basis, Debye-Ang**3):
 XXXX=         -11150.7782 YYYY=          -1681.1366 ZZZZ=           -985.3422 XXXY=           -245.4608
 XXXZ=             71.3937 YYYX=            -10.1615 YYYZ=            -11.7146 ZZZX=             -3.2386
 ZZZY=             -8.1938 XXYY=          -1731.0004 XXZZ=          -1620.2309 YYZZ=           -426.1904
 XXYZ=             43.6846 YYXZ=             -9.7218 ZZXY=             23.7196
 N-N= 2.063445800525D+03 E-N=-6.617120138030D+03  KE= 1.064024482688D+03
 No NMR shielding tensors so no spin-rotation constants.
 Leave Link  601 at Wed May  8 15:17:33 2024, MaxMem=  2684354560 cpu:              15.8 elap:               0.8
 (Enter /s/ls4/groups/g0130/bin/g16/l9999.exe)
 Electronic transition elements 
                 1             2             3             4             5 
      1  -0.106909D+04 -0.106904D+04 -0.106904D+04 -0.106903D+04 -0.106902D+04
      2   0.638876D+00  0.107843D+01 -0.139126D+01 -0.869012D-02  0.530943D+00
      3  -0.186485D+00 -0.144947D+00  0.760395D+00  0.224696D-02 -0.259864D+00
      4  -0.181074D-01  0.367745D+00 -0.372517D+00 -0.286869D-01 -0.787955D-01
      5  -0.437264D-01 -0.121201D+00  0.166429D+00  0.112747D-02 -0.717338D-01
      6   0.127481D-01  0.162312D-01 -0.910689D-01 -0.151274D-03  0.351734D-01
      7   0.126063D-02 -0.420861D-01  0.444433D-01  0.357709D-02  0.106606D-01
      8   0.672771D-01  0.583895D-03 -0.994888D-02 -0.497960D+00  0.695333D-01
      9  -0.543054D-01 -0.305946D+00 -0.167158D+00  0.358992D+00  0.594743D-01
     10   0.605431D-01  0.864214D-01 -0.274274D+00 -0.393490D-01  0.152891D+00
     11  -0.987087D-01  0.295211D+00  0.141668D+01  0.145659D-01 -0.433735D+00
     12  -0.131812D-01  0.111136D-01  0.316067D+00  0.721740D-02 -0.126580D+00
     13   0.514330D-03 -0.316001D-01 -0.952351D-01 -0.104624D-01  0.200556D-02
     14   0.967646D-01  0.562501D-01 -0.821673D+00 -0.261020D-02  0.320825D+00
     15   0.517310D-01  0.193805D+00  0.171475D+00  0.346072D-01  0.127445D+00
     16  -0.221771D-01 -0.769951D-01 -0.625649D-01  0.176310D-01 -0.420835D-01
 1\1\GINC-N087\FOpt\RPBE1PBE TD-FC\def2TZVP\C19H18N2O3\ARTD\08-May-2024
 \0\\#p PBE1PBE/def2TZVP EmpiricalDispersion=GD3BJ SCRF(PCM,Solvent=ace
 tone) TD(Singlets,NStates=5, root=1) opt guess=(read) geom=(allcheck) 
 gfinput\\TITLE\\0,1\C,-5.3564746061,1.2472493051,-1.5190227167\C,-4.39
 97590638,0.7387521292,-0.6799132411\C,-3.4845271081,1.6528627047,-0.12
 12418615\C,-3.5635078941,3.0481883749,-0.3783742684\C,-4.5277910527,3.
 5291335124,-1.2242780518\C,-5.4205612807,2.6242390726,-1.797610633\H,-
 4.3296058855,-0.3207839608,-0.4776376932\H,-6.1883152218,2.9876160759,
 -2.468238745\H,-6.0702629333,0.5813020995,-1.9856751883\H,-4.607896500
 8,4.5869340737,-1.4392574116\N,-2.4462718815,1.3900180283,0.6723362892
 \C,-1.5526525208,2.6043390679,0.7789723287\C,-2.5516523934,3.762084224
 8,0.4670876299\C,-2.0931237911,0.0864514786,1.1617390823\H,-1.45776492
 13,0.1993038838,2.0364813757\H,-1.548273631,-0.4731236033,0.3960493666
 \C,-3.2699262253,4.2362571707,1.7377056123\H,-3.682253906,3.4034899259
 ,2.3111875289\H,-4.0937070766,4.8932278664,1.4567759534\H,-2.587805695
 4,4.8023168069,2.37325523\C,-1.8834449703,4.9409574355,-0.2190226147\H
 ,-1.4621262406,4.663316337,-1.1829143065\H,-1.0843649994,5.33610131,0.
 4108911233\H,-2.6144482631,5.7372617796,-0.3699805208\O,-0.6692300213,
 2.5441022523,-0.3043110707\C,0.4366260646,1.7323722525,-0.1807912516\C
 ,-0.8457618894,2.6580301542,2.0921804195\C,0.3787501712,2.1416839348,2
 .2074505727\C,1.027798066,1.5308278821,1.0672975218\H,-1.363496199,3.0
 844270272,2.9389287743\H,0.8972471571,2.157209291,3.1599519231\C,2.176
 7118402,0.7604794746,1.1653198806\C,1.0003247474,1.1984893769,-1.32757
 87949\C,2.1417201522,0.4264763233,-1.2327454822\C,2.7402345834,0.19145
 16794,0.0175479964\H,2.642601442,0.5856334483,2.1252511527\H,0.5343900
 72,1.3843811721,-2.2880005674\H,2.5892475609,-0.0143604836,-2.11170826
 1\N,3.8788311112,-0.5996799327,0.114445266\O,4.3987209172,-0.799683312
 9,1.2599057861\O,4.374178785,-1.1065360542,-0.9436750673\H,-2.99345655
 19,-0.4616514519,1.4354030283\\Version=ES64L-G16RevA.03\State=1-A\HF=-
 1069.1569891\RMSD=3.716e-09\RMSF=2.890e-06\Dipole=-12.5559724,4.468549
 7,0.2450361\PG=C01 [X(C19H18N2O3)]\\@


 SOME PEOPLE TRY TO PULL THE WOOL OVER YOUR EYES
 USING THE WRONG YARN.
 Job cpu time:      19 days 13 hours 36 minutes 21.5 seconds.
 Elapsed time:       0 days 19 hours 34 minutes 20.8 seconds.
 File lengths (MBytes):  RWF=   2536 Int=      0 D2E=      0 Chk=    181 Scr=      1
 Normal termination of Gaussian 16 at Wed May  8 15:17:33 2024.
