 Entering Gaussian System, Link 0=/s/ls4/groups/g0130/bin/g16/g16
 Input=sp1_gs_m062x.gjf
 Output=sp1_gs_m062x.log
 Initial command:
 /s/ls4/groups/g0130/bin/g16/l1.exe "/dev/shm/scratch_artd/Gau-6599.inp" -scrdir="/dev/shm/scratch_artd/"
 Entering Link 1 = /s/ls4/groups/g0130/bin/g16/l1.exe PID=      6600.
  
 Copyright (c) 1988,1990,1992,1993,1995,1998,2003,2009,2016,
            Gaussian, Inc.  All Rights Reserved.
  
 This is part of the Gaussian(R) 16 program.  It is based on
 the Gaussian(R) 09 system (copyright 2009, Gaussian, Inc.),
 the Gaussian(R) 03 system (copyright 2003, Gaussian, Inc.),
 the Gaussian(R) 98 system (copyright 1998, Gaussian, Inc.),
 the Gaussian(R) 94 system (copyright 1995, Gaussian, Inc.),
 the Gaussian 92(TM) system (copyright 1992, Gaussian, Inc.),
 the Gaussian 90(TM) system (copyright 1990, Gaussian, Inc.),
 the Gaussian 88(TM) system (copyright 1988, Gaussian, Inc.),
 the Gaussian 86(TM) system (copyright 1986, Carnegie Mellon
 University), and the Gaussian 82(TM) system (copyright 1983,
 Carnegie Mellon University). Gaussian is a federally registered
 trademark of Gaussian, Inc.
  
 This software contains proprietary and confidential information,
 including trade secrets, belonging to Gaussian, Inc.
  
 This software is provided under written license and may be
 used, copied, transmitted, or stored only in accord with that
 written license.
  
 The following legend is applicable only to US Government
 contracts under FAR:
  
                    RESTRICTED RIGHTS LEGEND
  
 Use, reproduction and disclosure by the US Government is
 subject to restrictions as set forth in subparagraphs (a)
 and (c) of the Commercial Computer Software - Restricted
 Rights clause in FAR 52.227-19.
  
 Gaussian, Inc.
 340 Quinnipiac St., Bldg. 40, Wallingford CT 06492
  
  
 ---------------------------------------------------------------
 Warning -- This program may not be used in any manner that
 competes with the business of Gaussian, Inc. or will provide
 assistance to any competitor of Gaussian, Inc.  The licensee
 of this program is prohibited from giving any competitor of
 Gaussian, Inc. access to this program.  By using this program,
 the user acknowledges that Gaussian, Inc. is engaged in the
 business of creating and licensing software in the field of
 computational chemistry and represents and warrants to the
 licensee that it is not a competitor of Gaussian, Inc. and that
 it will not use this program in any manner prohibited above.
 ---------------------------------------------------------------
  

 Cite this work as:
 Gaussian 16, Revision A.03,
 M. J. Frisch, G. W. Trucks, H. B. Schlegel, G. E. Scuseria, 
 M. A. Robb, J. R. Cheeseman, G. Scalmani, V. Barone, 
 G. A. Petersson, H. Nakatsuji, X. Li, M. Caricato, A. V. Marenich, 
 J. Bloino, B. G. Janesko, R. Gomperts, B. Mennucci, H. P. Hratchian, 
 J. V. Ortiz, A. F. Izmaylov, J. L. Sonnenberg, D. Williams-Young, 
 F. Ding, F. Lipparini, F. Egidi, J. Goings, B. Peng, A. Petrone, 
 T. Henderson, D. Ranasinghe, V. G. Zakrzewski, J. Gao, N. Rega, 
 G. Zheng, W. Liang, M. Hada, M. Ehara, K. Toyota, R. Fukuda, 
 J. Hasegawa, M. Ishida, T. Nakajima, Y. Honda, O. Kitao, H. Nakai, 
 T. Vreven, K. Throssell, J. A. Montgomery, Jr., J. E. Peralta, 
 F. Ogliaro, M. J. Bearpark, J. J. Heyd, E. N. Brothers, K. N. Kudin, 
 V. N. Staroverov, T. A. Keith, R. Kobayashi, J. Normand, 
 K. Raghavachari, A. P. Rendell, J. C. Burant, S. S. Iyengar, 
 J. Tomasi, M. Cossi, J. M. Millam, M. Klene, C. Adamo, R. Cammi, 
 J. W. Ochterski, R. L. Martin, K. Morokuma, O. Farkas, 
 J. B. Foresman, and D. J. Fox, Gaussian, Inc., Wallingford CT, 2016.
 
 ******************************************
 Gaussian 16:  ES64L-G16RevA.03 25-Dec-2016
                10-Mar-2024 
 ******************************************
 %nprocs=24
 Will use up to   24 processors via shared memory.
 %mem=20GB
 %chk=sp1_gs_m062x.chk
 ----------------------------------------------------------------------
 #P M062X/def2TZVP opt freq=(noraman) scrf=(pcm,solvent=acetone) gfinpu
 t integral=ultrafine
 ----------------------------------------------------------------------
 1/18=20,19=15,26=6,38=1/1,3;
 2/9=110,12=2,17=6,18=5,40=1/2;
 3/5=44,7=101,11=2,24=10,25=1,30=1,70=2201,71=1,72=19,74=-55,75=-5/1,2,3;
 4//1;
 5/5=2,38=5,53=19/2;
 6/7=2,8=2,9=2,10=2,28=1/1;
 7//1,2,3,16;
 1/18=20,19=15,26=6/3(2);
 2/9=110/2;
 99//99;
 2/9=110/2;
 3/5=44,7=101,11=2,25=1,30=1,70=2205,71=1,72=19,74=-55,75=-5/1,2,3;
 4/5=5,16=3,69=1/1;
 5/5=2,38=5,53=19/2;
 7//1,2,3,16;
 1/18=20,19=15,26=6/3(-5);
 2/9=110/2;
 6/7=2,8=2,9=2,10=2,19=2,28=1/1;
 99/9=1/99;
 Leave Link    1 at Sun Mar 10 03:59:58 2024, MaxMem=  2684354560 cpu:               2.1 elap:               0.1
 (Enter /s/ls4/groups/g0130/bin/g16/l101.exe)
 -----
 TITLE
 -----
 Symbolic Z-matrix:
 Charge =  0 Multiplicity = 1
 6                    -6.13045   1.69174  -0.83496 
 6                    -5.0602    0.97779  -0.28407 
 6                    -3.8653    1.62367   0.00629 
 6                    -3.7708    2.99557  -0.2364 
 6                    -4.82505   3.72009  -0.79302 
 6                    -6.01094   3.05736  -1.09557 
 1                    -5.21014  -0.06867  -0.06016 
 1                    -6.8504    3.60443  -1.51615 
 1                    -7.06599   1.17954  -1.04512 
 1                    -4.73977   4.7872   -0.97226 
 7                    -2.71916   1.07005   0.60359 
 6                    -1.6857    2.15859   0.60394 
 6                    -2.43728   3.52613   0.23469 
 6                    -2.28372  -0.26396   0.16087 
 1                    -1.23394  -0.40843   0.43609 
 1                    -2.33422  -0.35751  -0.93135 
 6                    -2.69495   4.47569   1.42337 
 1                    -3.27991   3.99645   2.21694 
 1                    -3.26442   5.36009   1.11095 
 1                    -1.75462   4.83856   1.85264 
 6                    -1.73722   4.32267  -0.88182 
 1                    -1.66721   3.75035  -1.81414 
 1                    -0.72556   4.6131   -0.57766 
 1                    -2.28226   5.24356  -1.1218 
 8                    -0.70827   1.89349  -0.4374 
 6                     0.56059   1.51719  -0.09388 
 6                    -1.11333   2.15209   2.00954 
 6                     0.15985   1.88237   2.30922 
 6                     1.03834   1.50061   1.21991 
 1                    -1.80636   2.35281   2.82103 
 1                     0.51872   1.88108   3.33204 
 6                     2.33802   1.05472   1.48396 
 6                     1.37559   1.08978  -1.14578 
 6                     2.66552   0.62022  -0.89006 
 6                     3.13998   0.6041    0.42733 
 1                     2.70557   1.03013   2.50817 
 1                     0.99109   1.09513  -2.16336 
 1                     3.27669   0.26432  -1.7169 
 7                     4.48038   0.08132   0.71075 
 8                     4.96398   0.31503   1.82787 
 8                     5.04504  -0.56748  -0.1805 
 1                    -2.93327  -0.98982   0.62736 
 
 ITRead=  0  0  0  0  0  0  0  0  0  0  0  0  0  0  0  0  0  0  0  0
 ITRead=  0  0  0  0  0  0  0  0  0  0  0  0  0  0  0  0  0  0  0  0
 ITRead=  0  0
 MicOpt= -1 -1 -1 -1 -1 -1 -1 -1 -1 -1 -1 -1 -1 -1 -1 -1 -1 -1 -1 -1
 MicOpt= -1 -1 -1 -1 -1 -1 -1 -1 -1 -1 -1 -1 -1 -1 -1 -1 -1 -1 -1 -1
 MicOpt= -1 -1
 NAtoms=     42 NQM=       42 NQMF=       0 NMMI=      0 NMMIF=      0
                NMic=       0 NMicF=      0.
                    Isotopes and Nuclear Properties:
 (Nuclear quadrupole moments (NQMom) in fm**2, nuclear magnetic moments (NMagM)
  in nuclear magnetons)

  Atom         1           2           3           4           5           6           7           8           9          10
 IAtWgt=          12          12          12          12          12          12           1           1           1           1
 AtmWgt=  12.0000000  12.0000000  12.0000000  12.0000000  12.0000000  12.0000000   1.0078250   1.0078250   1.0078250   1.0078250
 NucSpn=           0           0           0           0           0           0           1           1           1           1
 AtZEff=  -0.0000000  -0.0000000  -0.0000000  -0.0000000  -0.0000000  -0.0000000  -0.0000000  -0.0000000  -0.0000000  -0.0000000
 NQMom=    0.0000000   0.0000000   0.0000000   0.0000000   0.0000000   0.0000000   0.0000000   0.0000000   0.0000000   0.0000000
 NMagM=    0.0000000   0.0000000   0.0000000   0.0000000   0.0000000   0.0000000   2.7928460   2.7928460   2.7928460   2.7928460
 AtZNuc=   6.0000000   6.0000000   6.0000000   6.0000000   6.0000000   6.0000000   1.0000000   1.0000000   1.0000000   1.0000000

  Atom        11          12          13          14          15          16          17          18          19          20
 IAtWgt=          14          12          12          12           1           1          12           1           1           1
 AtmWgt=  14.0030740  12.0000000  12.0000000  12.0000000   1.0078250   1.0078250  12.0000000   1.0078250   1.0078250   1.0078250
 NucSpn=           2           0           0           0           1           1           0           1           1           1
 AtZEff=  -0.0000000  -0.0000000  -0.0000000  -0.0000000  -0.0000000  -0.0000000  -0.0000000  -0.0000000  -0.0000000  -0.0000000
 NQMom=    2.0440000   0.0000000   0.0000000   0.0000000   0.0000000   0.0000000   0.0000000   0.0000000   0.0000000   0.0000000
 NMagM=    0.4037610   0.0000000   0.0000000   0.0000000   2.7928460   2.7928460   0.0000000   2.7928460   2.7928460   2.7928460
 AtZNuc=   7.0000000   6.0000000   6.0000000   6.0000000   1.0000000   1.0000000   6.0000000   1.0000000   1.0000000   1.0000000

  Atom        21          22          23          24          25          26          27          28          29          30
 IAtWgt=          12           1           1           1          16          12          12          12          12           1
 AtmWgt=  12.0000000   1.0078250   1.0078250   1.0078250  15.9949146  12.0000000  12.0000000  12.0000000  12.0000000   1.0078250
 NucSpn=           0           1           1           1           0           0           0           0           0           1
 AtZEff=  -0.0000000  -0.0000000  -0.0000000  -0.0000000  -0.0000000  -0.0000000  -0.0000000  -0.0000000  -0.0000000  -0.0000000
 NQMom=    0.0000000   0.0000000   0.0000000   0.0000000   0.0000000   0.0000000   0.0000000   0.0000000   0.0000000   0.0000000
 NMagM=    0.0000000   2.7928460   2.7928460   2.7928460   0.0000000   0.0000000   0.0000000   0.0000000   0.0000000   2.7928460
 AtZNuc=   6.0000000   1.0000000   1.0000000   1.0000000   8.0000000   6.0000000   6.0000000   6.0000000   6.0000000   1.0000000

  Atom        31          32          33          34          35          36          37          38          39          40
 IAtWgt=           1          12          12          12          12           1           1           1          14          16
 AtmWgt=   1.0078250  12.0000000  12.0000000  12.0000000  12.0000000   1.0078250   1.0078250   1.0078250  14.0030740  15.9949146
 NucSpn=           1           0           0           0           0           1           1           1           2           0
 AtZEff=  -0.0000000  -0.0000000  -0.0000000  -0.0000000  -0.0000000  -0.0000000  -0.0000000  -0.0000000  -0.0000000  -0.0000000
 NQMom=    0.0000000   0.0000000   0.0000000   0.0000000   0.0000000   0.0000000   0.0000000   0.0000000   2.0440000   0.0000000
 NMagM=    2.7928460   0.0000000   0.0000000   0.0000000   0.0000000   2.7928460   2.7928460   2.7928460   0.4037610   0.0000000
 AtZNuc=   1.0000000   6.0000000   6.0000000   6.0000000   6.0000000   1.0000000   1.0000000   1.0000000   7.0000000   8.0000000

  Atom        41          42
 IAtWgt=          16           1
 AtmWgt=  15.9949146   1.0078250
 NucSpn=           0           1
 AtZEff=  -0.0000000  -0.0000000
 NQMom=    0.0000000   0.0000000
 NMagM=    0.0000000   2.7928460
 AtZNuc=   8.0000000   1.0000000
 Leave Link  101 at Sun Mar 10 03:59:59 2024, MaxMem=  2684354560 cpu:               8.2 elap:               0.4
 (Enter /s/ls4/groups/g0130/bin/g16/l103.exe)

 GradGradGradGradGradGradGradGradGradGradGradGradGradGradGradGradGradGrad
 Berny optimization.
 Initialization pass.
                           ----------------------------
                           !    Initial Parameters    !
                           ! (Angstroms and Degrees)  !
 --------------------------                            --------------------------
 ! Name  Definition              Value          Derivative Info.                !
 --------------------------------------------------------------------------------
 ! R1    R(1,2)                  1.3995         estimate D2E/DX2                !
 ! R2    R(1,6)                  1.3954         estimate D2E/DX2                !
 ! R3    R(1,9)                  1.0871         estimate D2E/DX2                !
 ! R4    R(2,3)                  1.389          estimate D2E/DX2                !
 ! R5    R(2,7)                  1.0806         estimate D2E/DX2                !
 ! R6    R(3,4)                  1.3964         estimate D2E/DX2                !
 ! R7    R(3,11)                 1.406          estimate D2E/DX2                !
 ! R8    R(4,5)                  1.3951         estimate D2E/DX2                !
 ! R9    R(4,13)                 1.5105         estimate D2E/DX2                !
 ! R10   R(5,6)                  1.3918         estimate D2E/DX2                !
 ! R11   R(5,10)                 1.0854         estimate D2E/DX2                !
 ! R12   R(6,8)                  1.0867         estimate D2E/DX2                !
 ! R13   R(11,12)                1.501          estimate D2E/DX2                !
 ! R14   R(11,14)                1.4715         estimate D2E/DX2                !
 ! R15   R(12,13)                1.6036         estimate D2E/DX2                !
 ! R16   R(12,25)                1.4526         estimate D2E/DX2                !
 ! R17   R(12,27)                1.5177         estimate D2E/DX2                !
 ! R18   R(13,17)                1.5431         estimate D2E/DX2                !
 ! R19   R(13,21)                1.5399         estimate D2E/DX2                !
 ! R20   R(14,15)                1.0948         estimate D2E/DX2                !
 ! R21   R(14,16)                1.0974         estimate D2E/DX2                !
 ! R22   R(14,42)                1.08           estimate D2E/DX2                !
 ! R23   R(17,18)                1.0962         estimate D2E/DX2                !
 ! R24   R(17,19)                1.0973         estimate D2E/DX2                !
 ! R25   R(17,20)                1.0955         estimate D2E/DX2                !
 ! R26   R(21,22)                1.0962         estimate D2E/DX2                !
 ! R27   R(21,23)                1.0956         estimate D2E/DX2                !
 ! R28   R(21,24)                1.0967         estimate D2E/DX2                !
 ! R29   R(25,26)                1.3673         estimate D2E/DX2                !
 ! R30   R(26,29)                1.3981         estimate D2E/DX2                !
 ! R31   R(26,33)                1.3976         estimate D2E/DX2                !
 ! R32   R(27,28)                1.3355         estimate D2E/DX2                !
 ! R33   R(27,30)                1.0859         estimate D2E/DX2                !
 ! R34   R(28,29)                1.4505         estimate D2E/DX2                !
 ! R35   R(28,31)                1.084          estimate D2E/DX2                !
 ! R36   R(29,32)                1.3992         estimate D2E/DX2                !
 ! R37   R(32,35)                1.401          estimate D2E/DX2                !
 ! R38   R(32,36)                1.0884         estimate D2E/DX2                !
 ! R39   R(33,34)                1.3964         estimate D2E/DX2                !
 ! R40   R(33,37)                1.0878         estimate D2E/DX2                !
 ! R41   R(34,35)                1.4003         estimate D2E/DX2                !
 ! R42   R(34,38)                1.0881         estimate D2E/DX2                !
 ! R43   R(35,39)                1.4664         estimate D2E/DX2                !
 ! R44   R(39,40)                1.2395         estimate D2E/DX2                !
 ! R45   R(39,41)                1.2386         estimate D2E/DX2                !
 ! A1    A(2,1,6)              120.4826         estimate D2E/DX2                !
 ! A2    A(2,1,9)              119.5945         estimate D2E/DX2                !
 ! A3    A(6,1,9)              119.9151         estimate D2E/DX2                !
 ! A4    A(1,2,3)              120.1951         estimate D2E/DX2                !
 ! A5    A(1,2,7)              118.0003         estimate D2E/DX2                !
 ! A6    A(3,2,7)              121.7602         estimate D2E/DX2                !
 ! A7    A(2,3,4)              118.6026         estimate D2E/DX2                !
 ! A8    A(2,3,11)             127.3712         estimate D2E/DX2                !
 ! A9    A(4,3,11)             113.9229         estimate D2E/DX2                !
 ! A10   A(3,4,5)              121.8998         estimate D2E/DX2                !
 ! A11   A(3,4,13)             110.5252         estimate D2E/DX2                !
 ! A12   A(5,4,13)             127.5291         estimate D2E/DX2                !
 ! A13   A(4,5,6)              118.9037         estimate D2E/DX2                !
 ! A14   A(4,5,10)             121.138          estimate D2E/DX2                !
 ! A15   A(6,5,10)             119.9464         estimate D2E/DX2                !
 ! A16   A(1,6,5)              119.8934         estimate D2E/DX2                !
 ! A17   A(1,6,8)              119.9216         estimate D2E/DX2                !
 ! A18   A(5,6,8)              120.1743         estimate D2E/DX2                !
 ! A19   A(3,11,12)            106.0099         estimate D2E/DX2                !
 ! A20   A(3,11,14)            118.059          estimate D2E/DX2                !
 ! A21   A(12,11,14)           116.9874         estimate D2E/DX2                !
 ! A22   A(11,12,13)           107.2005         estimate D2E/DX2                !
 ! A23   A(11,12,25)           109.3158         estimate D2E/DX2                !
 ! A24   A(11,12,27)           104.8788         estimate D2E/DX2                !
 ! A25   A(13,12,25)           107.8149         estimate D2E/DX2                !
 ! A26   A(13,12,27)           113.1836         estimate D2E/DX2                !
 ! A27   A(25,12,27)           114.1665         estimate D2E/DX2                !
 ! A28   A(4,13,12)            100.7219         estimate D2E/DX2                !
 ! A29   A(4,13,17)            107.9974         estimate D2E/DX2                !
 ! A30   A(4,13,21)            110.9108         estimate D2E/DX2                !
 ! A31   A(12,13,17)           115.194          estimate D2E/DX2                !
 ! A32   A(12,13,21)           113.2678         estimate D2E/DX2                !
 ! A33   A(17,13,21)           108.4302         estimate D2E/DX2                !
 ! A34   A(11,14,15)           109.1319         estimate D2E/DX2                !
 ! A35   A(11,14,16)           111.2922         estimate D2E/DX2                !
 ! A36   A(11,14,42)           107.5404         estimate D2E/DX2                !
 ! A37   A(15,14,16)           106.4438         estimate D2E/DX2                !
 ! A38   A(15,14,42)           112.2978         estimate D2E/DX2                !
 ! A39   A(16,14,42)           110.1774         estimate D2E/DX2                !
 ! A40   A(13,17,18)           112.1948         estimate D2E/DX2                !
 ! A41   A(13,17,19)           111.3038         estimate D2E/DX2                !
 ! A42   A(13,17,20)           111.2447         estimate D2E/DX2                !
 ! A43   A(18,17,19)           106.3523         estimate D2E/DX2                !
 ! A44   A(18,17,20)           108.6135         estimate D2E/DX2                !
 ! A45   A(19,17,20)           106.8613         estimate D2E/DX2                !
 ! A46   A(13,21,22)           112.0638         estimate D2E/DX2                !
 ! A47   A(13,21,23)           110.832          estimate D2E/DX2                !
 ! A48   A(13,21,24)           111.536          estimate D2E/DX2                !
 ! A49   A(22,21,23)           108.3937         estimate D2E/DX2                !
 ! A50   A(22,21,24)           106.5012         estimate D2E/DX2                !
 ! A51   A(23,21,24)           107.2818         estimate D2E/DX2                !
 ! A52   A(12,25,26)           119.6397         estimate D2E/DX2                !
 ! A53   A(25,26,29)           123.8118         estimate D2E/DX2                !
 ! A54   A(25,26,33)           115.8619         estimate D2E/DX2                !
 ! A55   A(29,26,33)           120.2893         estimate D2E/DX2                !
 ! A56   A(12,27,28)           124.6266         estimate D2E/DX2                !
 ! A57   A(12,27,30)           116.7849         estimate D2E/DX2                !
 ! A58   A(28,27,30)           118.5605         estimate D2E/DX2                !
 ! A59   A(27,28,29)           117.5168         estimate D2E/DX2                !
 ! A60   A(27,28,31)           121.8441         estimate D2E/DX2                !
 ! A61   A(29,28,31)           120.5169         estimate D2E/DX2                !
 ! A62   A(26,29,28)           119.7108         estimate D2E/DX2                !
 ! A63   A(26,29,32)           119.9038         estimate D2E/DX2                !
 ! A64   A(28,29,32)           120.3121         estimate D2E/DX2                !
 ! A65   A(29,32,35)           119.4655         estimate D2E/DX2                !
 ! A66   A(29,32,36)           119.8976         estimate D2E/DX2                !
 ! A67   A(35,32,36)           120.6068         estimate D2E/DX2                !
 ! A68   A(26,33,34)           120.2443         estimate D2E/DX2                !
 ! A69   A(26,33,37)           119.7632         estimate D2E/DX2                !
 ! A70   A(34,33,37)           119.9661         estimate D2E/DX2                !
 ! A71   A(33,34,35)           119.2854         estimate D2E/DX2                !
 ! A72   A(33,34,38)           119.3226         estimate D2E/DX2                !
 ! A73   A(35,34,38)           121.3885         estimate D2E/DX2                !
 ! A74   A(32,35,34)           120.7904         estimate D2E/DX2                !
 ! A75   A(32,35,39)           119.4823         estimate D2E/DX2                !
 ! A76   A(34,35,39)           119.7125         estimate D2E/DX2                !
 ! A77   A(35,39,40)           117.6195         estimate D2E/DX2                !
 ! A78   A(35,39,41)           117.6708         estimate D2E/DX2                !
 ! A79   A(40,39,41)           124.7088         estimate D2E/DX2                !
 ! D1    D(6,1,2,3)             -0.1356         estimate D2E/DX2                !
 ! D2    D(6,1,2,7)            177.4839         estimate D2E/DX2                !
 ! D3    D(9,1,2,3)           -179.1247         estimate D2E/DX2                !
 ! D4    D(9,1,2,7)             -1.5052         estimate D2E/DX2                !
 ! D5    D(2,1,6,5)             -0.705          estimate D2E/DX2                !
 ! D6    D(2,1,6,8)           -179.5171         estimate D2E/DX2                !
 ! D7    D(9,1,6,5)            178.2808         estimate D2E/DX2                !
 ! D8    D(9,1,6,8)             -0.5314         estimate D2E/DX2                !
 ! D9    D(1,2,3,4)              1.3554         estimate D2E/DX2                !
 ! D10   D(1,2,3,11)           177.4156         estimate D2E/DX2                !
 ! D11   D(7,2,3,4)           -176.1725         estimate D2E/DX2                !
 ! D12   D(7,2,3,11)            -0.1124         estimate D2E/DX2                !
 ! D13   D(2,3,4,5)             -1.7984         estimate D2E/DX2                !
 ! D14   D(2,3,4,13)           175.9131         estimate D2E/DX2                !
 ! D15   D(11,3,4,5)          -178.3737         estimate D2E/DX2                !
 ! D16   D(11,3,4,13)           -0.6622         estimate D2E/DX2                !
 ! D17   D(2,3,11,12)          176.1672         estimate D2E/DX2                !
 ! D18   D(2,3,11,14)           42.7007         estimate D2E/DX2                !
 ! D19   D(4,3,11,12)           -7.6167         estimate D2E/DX2                !
 ! D20   D(4,3,11,14)         -141.0832         estimate D2E/DX2                !
 ! D21   D(3,4,5,6)              0.9763         estimate D2E/DX2                !
 ! D22   D(3,4,5,10)           179.7196         estimate D2E/DX2                !
 ! D23   D(13,4,5,6)          -176.3209         estimate D2E/DX2                !
 ! D24   D(13,4,5,10)            2.4225         estimate D2E/DX2                !
 ! D25   D(3,4,13,12)            7.922          estimate D2E/DX2                !
 ! D26   D(3,4,13,17)         -113.2127         estimate D2E/DX2                !
 ! D27   D(3,4,13,21)          128.1034         estimate D2E/DX2                !
 ! D28   D(5,4,13,12)         -174.5281         estimate D2E/DX2                !
 ! D29   D(5,4,13,17)           64.3373         estimate D2E/DX2                !
 ! D30   D(5,4,13,21)          -54.3466         estimate D2E/DX2                !
 ! D31   D(4,5,6,1)              0.2907         estimate D2E/DX2                !
 ! D32   D(4,5,6,8)            179.0999         estimate D2E/DX2                !
 ! D33   D(10,5,6,1)          -178.468          estimate D2E/DX2                !
 ! D34   D(10,5,6,8)             0.3412         estimate D2E/DX2                !
 ! D35   D(3,11,12,13)          12.2717         estimate D2E/DX2                !
 ! D36   D(3,11,12,25)        -104.3356         estimate D2E/DX2                !
 ! D37   D(3,11,12,27)         132.8458         estimate D2E/DX2                !
 ! D38   D(14,11,12,13)        146.3214         estimate D2E/DX2                !
 ! D39   D(14,11,12,25)         29.7141         estimate D2E/DX2                !
 ! D40   D(14,11,12,27)        -93.1046         estimate D2E/DX2                !
 ! D41   D(3,11,14,15)         160.5627         estimate D2E/DX2                !
 ! D42   D(3,11,14,16)          43.3837         estimate D2E/DX2                !
 ! D43   D(3,11,14,42)         -77.3755         estimate D2E/DX2                !
 ! D44   D(12,11,14,15)         32.0875         estimate D2E/DX2                !
 ! D45   D(12,11,14,16)        -85.0915         estimate D2E/DX2                !
 ! D46   D(12,11,14,42)        154.1493         estimate D2E/DX2                !
 ! D47   D(11,12,13,4)         -12.127          estimate D2E/DX2                !
 ! D48   D(11,12,13,17)        103.7602         estimate D2E/DX2                !
 ! D49   D(11,12,13,21)       -130.6059         estimate D2E/DX2                !
 ! D50   D(25,12,13,4)         105.4655         estimate D2E/DX2                !
 ! D51   D(25,12,13,17)       -138.6474         estimate D2E/DX2                !
 ! D52   D(25,12,13,21)        -13.0134         estimate D2E/DX2                !
 ! D53   D(27,12,13,4)        -127.2765         estimate D2E/DX2                !
 ! D54   D(27,12,13,17)        -11.3894         estimate D2E/DX2                !
 ! D55   D(27,12,13,21)        114.2446         estimate D2E/DX2                !
 ! D56   D(11,12,25,26)       -109.6502         estimate D2E/DX2                !
 ! D57   D(13,12,25,26)        134.1327         estimate D2E/DX2                !
 ! D58   D(27,12,25,26)          7.4472         estimate D2E/DX2                !
 ! D59   D(11,12,27,28)        117.2447         estimate D2E/DX2                !
 ! D60   D(11,12,27,30)        -60.7995         estimate D2E/DX2                !
 ! D61   D(13,12,27,28)       -126.2272         estimate D2E/DX2                !
 ! D62   D(13,12,27,30)         55.7286         estimate D2E/DX2                !
 ! D63   D(25,12,27,28)         -2.3817         estimate D2E/DX2                !
 ! D64   D(25,12,27,30)        179.5741         estimate D2E/DX2                !
 ! D65   D(4,13,17,18)          54.1607         estimate D2E/DX2                !
 ! D66   D(4,13,17,19)         -64.8828         estimate D2E/DX2                !
 ! D67   D(4,13,17,20)         176.0631         estimate D2E/DX2                !
 ! D68   D(12,13,17,18)        -57.4938         estimate D2E/DX2                !
 ! D69   D(12,13,17,19)       -176.5374         estimate D2E/DX2                !
 ! D70   D(12,13,17,20)         64.4086         estimate D2E/DX2                !
 ! D71   D(21,13,17,18)        174.4141         estimate D2E/DX2                !
 ! D72   D(21,13,17,19)         55.3705         estimate D2E/DX2                !
 ! D73   D(21,13,17,20)        -63.6836         estimate D2E/DX2                !
 ! D74   D(4,13,21,22)         -52.559          estimate D2E/DX2                !
 ! D75   D(4,13,21,23)        -173.792          estimate D2E/DX2                !
 ! D76   D(4,13,21,24)          66.7447         estimate D2E/DX2                !
 ! D77   D(12,13,21,22)         59.842          estimate D2E/DX2                !
 ! D78   D(12,13,21,23)        -61.391          estimate D2E/DX2                !
 ! D79   D(12,13,21,24)        179.1457         estimate D2E/DX2                !
 ! D80   D(17,13,21,22)       -170.9812         estimate D2E/DX2                !
 ! D81   D(17,13,21,23)         67.7858         estimate D2E/DX2                !
 ! D82   D(17,13,21,24)        -51.6775         estimate D2E/DX2                !
 ! D83   D(12,25,26,29)         -7.0045         estimate D2E/DX2                !
 ! D84   D(12,25,26,33)        170.7836         estimate D2E/DX2                !
 ! D85   D(25,26,29,28)          0.8153         estimate D2E/DX2                !
 ! D86   D(25,26,29,32)        177.712          estimate D2E/DX2                !
 ! D87   D(33,26,29,28)       -176.8795         estimate D2E/DX2                !
 ! D88   D(33,26,29,32)          0.0171         estimate D2E/DX2                !
 ! D89   D(25,26,33,34)       -176.7262         estimate D2E/DX2                !
 ! D90   D(25,26,33,37)          1.4033         estimate D2E/DX2                !
 ! D91   D(29,26,33,34)          1.1454         estimate D2E/DX2                !
 ! D92   D(29,26,33,37)        179.275          estimate D2E/DX2                !
 ! D93   D(12,27,28,29)         -3.3991         estimate D2E/DX2                !
 ! D94   D(12,27,28,31)       -179.3967         estimate D2E/DX2                !
 ! D95   D(30,27,28,29)        174.613          estimate D2E/DX2                !
 ! D96   D(30,27,28,31)         -1.3846         estimate D2E/DX2                !
 ! D97   D(27,28,29,26)          4.3877         estimate D2E/DX2                !
 ! D98   D(27,28,29,32)       -172.496          estimate D2E/DX2                !
 ! D99   D(31,28,29,26)       -179.5589         estimate D2E/DX2                !
 ! D100  D(31,28,29,32)          3.5574         estimate D2E/DX2                !
 ! D101  D(26,29,32,35)         -1.2187         estimate D2E/DX2                !
 ! D102  D(26,29,32,36)       -179.2375         estimate D2E/DX2                !
 ! D103  D(28,29,32,35)        175.6591         estimate D2E/DX2                !
 ! D104  D(28,29,32,36)         -2.3598         estimate D2E/DX2                !
 ! D105  D(29,32,35,34)          1.2846         estimate D2E/DX2                !
 ! D106  D(29,32,35,39)       -177.3095         estimate D2E/DX2                !
 ! D107  D(36,32,35,34)        179.289          estimate D2E/DX2                !
 ! D108  D(36,32,35,39)          0.6949         estimate D2E/DX2                !
 ! D109  D(26,33,34,35)         -1.08           estimate D2E/DX2                !
 ! D110  D(26,33,34,38)        178.2452         estimate D2E/DX2                !
 ! D111  D(37,33,34,35)       -179.2058         estimate D2E/DX2                !
 ! D112  D(37,33,34,38)          0.1195         estimate D2E/DX2                !
 ! D113  D(33,34,35,32)         -0.1359         estimate D2E/DX2                !
 ! D114  D(33,34,35,39)        178.4549         estimate D2E/DX2                !
 ! D115  D(38,34,35,32)       -179.4468         estimate D2E/DX2                !
 ! D116  D(38,34,35,39)         -0.8559         estimate D2E/DX2                !
 ! D117  D(32,35,39,40)        -14.948          estimate D2E/DX2                !
 ! D118  D(32,35,39,41)        164.6988         estimate D2E/DX2                !
 ! D119  D(34,35,39,40)        166.4426         estimate D2E/DX2                !
 ! D120  D(34,35,39,41)        -13.9106         estimate D2E/DX2                !
 --------------------------------------------------------------------------------
 Trust Radius=3.00D-01 FncErr=5.00D-06 GrdErr=5.00D-06 EigMax=2.50D+02 EigMin=1.00D-04
 Number of steps in this run=    252 maximum allowed number of steps=    252.
 GradGradGradGradGradGradGradGradGradGradGradGradGradGradGradGradGradGrad

 Leave Link  103 at Sun Mar 10 03:59:59 2024, MaxMem=  2684354560 cpu:               0.5 elap:               0.0
 (Enter /s/ls4/groups/g0130/bin/g16/l202.exe)
                          Input orientation:                          
 ---------------------------------------------------------------------
 Center     Atomic      Atomic             Coordinates (Angstroms)
 Number     Number       Type             X           Y           Z
 ---------------------------------------------------------------------
      1          6           0       -6.130450    1.691740   -0.834960
      2          6           0       -5.060200    0.977790   -0.284070
      3          6           0       -3.865300    1.623670    0.006290
      4          6           0       -3.770800    2.995570   -0.236400
      5          6           0       -4.825050    3.720090   -0.793020
      6          6           0       -6.010940    3.057360   -1.095570
      7          1           0       -5.210140   -0.068670   -0.060160
      8          1           0       -6.850400    3.604430   -1.516150
      9          1           0       -7.065990    1.179540   -1.045120
     10          1           0       -4.739770    4.787200   -0.972260
     11          7           0       -2.719160    1.070050    0.603590
     12          6           0       -1.685700    2.158590    0.603940
     13          6           0       -2.437280    3.526130    0.234690
     14          6           0       -2.283720   -0.263960    0.160870
     15          1           0       -1.233940   -0.408430    0.436090
     16          1           0       -2.334220   -0.357510   -0.931350
     17          6           0       -2.694950    4.475690    1.423370
     18          1           0       -3.279910    3.996450    2.216940
     19          1           0       -3.264420    5.360090    1.110950
     20          1           0       -1.754620    4.838560    1.852640
     21          6           0       -1.737220    4.322670   -0.881820
     22          1           0       -1.667210    3.750350   -1.814140
     23          1           0       -0.725560    4.613100   -0.577660
     24          1           0       -2.282260    5.243560   -1.121800
     25          8           0       -0.708270    1.893490   -0.437400
     26          6           0        0.560590    1.517190   -0.093880
     27          6           0       -1.113330    2.152090    2.009540
     28          6           0        0.159850    1.882370    2.309220
     29          6           0        1.038340    1.500610    1.219910
     30          1           0       -1.806360    2.352810    2.821030
     31          1           0        0.518720    1.881080    3.332040
     32          6           0        2.338020    1.054720    1.483960
     33          6           0        1.375590    1.089780   -1.145780
     34          6           0        2.665520    0.620220   -0.890060
     35          6           0        3.139980    0.604100    0.427330
     36          1           0        2.705570    1.030130    2.508170
     37          1           0        0.991090    1.095130   -2.163360
     38          1           0        3.276690    0.264320   -1.716900
     39          7           0        4.480380    0.081320    0.710750
     40          8           0        4.963980    0.315030    1.827870
     41          8           0        5.045040   -0.567480   -0.180500
     42          1           0       -2.933270   -0.989822    0.627356
 ---------------------------------------------------------------------
                    Distance matrix (angstroms):
                    1          2          3          4          5
     1  C    0.000000
     2  C    1.399514   0.000000
     3  C    2.417279   1.388977   0.000000
     4  C    2.761557   2.395049   1.396402   0.000000
     5  C    2.412474   2.799024   2.440286   1.395062   0.000000
     6  C    1.395392   2.426324   2.805946   2.400045   1.391791
     7  H    2.132212   1.080600   2.162643   3.390033   3.878154
     8  H    2.154236   3.409116   3.892564   3.390045   2.153680
     9  H    1.087084   2.154784   3.398107   3.848411   3.397022
    10  H    3.396280   3.884313   3.424935   2.165717   1.085414
    11  N    3.754041   2.505378   1.406023   2.349289   3.661694
    12  C    4.695124   3.683762   2.322495   2.398822   3.774294
    13  C    4.260122   3.693624   2.389720   1.510528   2.606771
    14  C    4.428744   3.073883   2.467476   3.604687   4.820884
    15  H    5.477417   4.132856   3.352345   4.298269   5.608160
    16  H    4.315099   3.103702   2.673658   3.713470   4.780187
    17  C    4.965188   4.554675   3.392912   2.470434   3.165540
    18  H    4.769839   4.305437   3.295412   2.694738   3.394656
    19  H    5.045541   4.937151   3.942355   2.768163   2.958085
    20  H    6.022753   5.513432   4.266087   3.438849   4.204525
    21  C    5.120982   4.752654   3.549939   2.512610   3.147329
    22  H    5.011704   4.641184   3.559260   2.735699   3.318969
    23  H    6.149259   5.664872   4.374432   3.465018   4.201150
    24  H    5.244642   5.159025   4.108796   2.837806   2.982422
    25  O    5.440477   4.449866   3.199453   3.260992   4.517833
    26  C    6.734217   5.649815   4.428304   4.578958   5.860604
    27  C    5.785723   4.713535   3.444645   3.580203   4.908139
    28  C    7.034919   5.898503   4.644593   4.813461   6.152263
    29  C    7.459931   6.302974   5.053088   5.242478   6.584628
    30  H    5.700968   4.703169   3.562814   3.690534   4.903397
    31  H    7.849280   6.709436   5.508766   5.689977   6.996710
    32  C    8.803304   7.606938   6.402218   6.636582   7.974861
    33  C    7.536551   6.494188   5.392516   5.562763   6.744695
    34  C    8.861167   7.757695   6.667981   6.891718   8.107234
    35  C    9.418981   8.239459   7.091597   7.342925   8.639465
    36  H    9.470454   8.252668   7.056063   7.303355   8.651241
    37  H    7.268901   6.337477   5.345209   5.477266   6.526541
    38  H    9.555607   8.489156   7.471629   7.701865   8.856302
    39  N   10.843080   9.634106   8.516189   8.801813  10.104108
    40  O   11.492274  10.265658   9.109713   9.367117  10.690585
    41  O   11.420331  10.223231   9.177701   9.508811  10.778549
    42  H    4.421663   3.037437   2.843368   4.163037   5.270633
                    6          7          8          9         10
     6  C    0.000000
     7  H    3.389014   0.000000
     8  H    1.086677   4.278086   0.000000
     9  H    2.154503   2.443840   2.479605   0.000000
    10  H    2.150215   4.963129   2.479823   4.293229   0.000000
    11  N    4.203851   2.818196   5.289946   4.650286   4.514795
    12  C    4.733268   4.221776   5.767093   5.711870   4.326816
    13  C    3.841924   4.549536   4.748389   5.345031   2.889375
    14  C    5.148007   2.941246   6.215417   5.138892   5.729780
    15  H    6.097328   4.021426   7.173487   6.223218   6.424085
    16  H    5.020615   3.018827   6.036128   4.976456   5.679471
    17  C    4.399149   5.401690   5.164072   6.005334   3.165023
    18  H    4.394671   5.043429   5.180544   5.736760   3.595480
    19  H    4.208880   5.884621   4.779461   6.047939   2.616223
    20  H    5.475479   6.299232   6.232078   7.070791   4.110209
    21  C    4.462217   5.658636   5.202197   6.188839   3.039617
    22  H    4.456969   5.496700   5.193799   6.028871   3.350290
    23  H    5.533877   6.503709   6.277885   7.225573   4.037314
    24  H    4.322408   6.157869   4.869308   6.277437   2.503993
    25  O    5.468646   4.925364   6.466589   6.426481   4.991255
    26  C    6.823526   5.984765   7.829572   7.693087   6.289542
    27  C    5.869225   5.098949   6.888668   6.760988   5.383865
    28  C    7.145057   6.185249   8.169611   7.997395   6.573616
    29  C    7.581376   6.568464   8.610709   8.421022   6.999560
    30  H    5.789183   5.074499   6.769049   6.632299   5.377750
    31  H    7.976454   6.937462   8.987703   8.785187   7.390822
    32  C    8.964914   7.785951   9.996437   9.738954   8.370157
    33  C    7.644260   6.774394   8.609736   8.442657   7.148332
    34  C    9.014591   7.949171   9.992509   9.748803   8.497576
    35  C    9.595679   8.391351  10.610692  10.327684   9.030373
    36  H    9.647494   8.394173  10.683573  10.398633   9.036706
    37  H    7.349758   6.650800   8.258598   8.134748   6.920466
    38  H    9.718395   8.653436  10.665580  10.404804   9.234423
    39  N   11.053841   9.722293  12.073026  11.730636  10.487564
    40  O   11.683995  10.354931  12.711499  12.398453  11.045533
    41  O   11.670969  10.268009  12.676367  12.266894  11.182218
    42  H    5.368446   2.550556   6.406690   4.958093   6.260686
                   11         12         13         14         15
    11  N    0.000000
    12  C    1.500986   0.000000
    13  C    2.499574   1.603553   0.000000
    14  C    1.471459   2.534302   3.793918   0.000000
    15  H    2.102341   2.611868   4.119387   1.094831   0.000000
    16  H    2.131231   3.018021   4.056221   1.097382   1.755876
    17  C    3.503000   2.656879   1.543055   4.922123   5.192678
    18  H    3.388385   2.919076   2.204664   4.834347   5.173044
    19  H    4.354212   3.605415   2.194402   5.787431   6.152569
    20  H    4.085600   2.957404   2.192318   5.401643   5.459728
    21  C    3.708124   2.625525   1.539855   4.735297   4.936951
    22  H    3.759791   2.895022   2.200224   4.516130   4.748338
    23  H    4.233556   2.888367   2.184354   5.172911   5.148000
    24  H    4.537184   3.584843   2.194006   5.654911   5.955752
    25  O    2.409438   1.452596   2.471173   2.737619   2.517568
    26  C    3.382774   2.438066   3.623675   3.365634   2.684999
    27  C    2.392947   1.517683   2.605940   3.259554   3.007749
    28  C    3.443506   2.527911   3.708194   3.897842   3.270937
    29  C    3.831976   2.869277   4.141657   3.907858   3.069538
    30  H    2.719507   2.228849   2.909277   3.761889   3.693244
    31  H    4.311157   3.518382   4.586688   4.744595   4.086588
    32  C    5.133260   4.264187   5.520148   4.984974   3.999717
    33  C    4.452826   3.684477   4.730695   4.114668   3.399499
    34  C    5.606078   4.850952   5.978958   5.136264   4.245301
    35  C    5.880280   5.072950   6.299301   5.499186   4.489596
    36  H    5.749497   4.917598   6.152043   5.663700   4.677896
    37  H    4.628455   3.994259   4.838814   4.239523   3.737458
    38  H    6.479513   5.796540   6.862766   5.892645   5.043188
    39  N    7.267905   6.507457   7.742569   6.795192   5.741842
    40  O    7.816621   7.008207   8.223627   7.459442   6.393329
    41  O    7.973651   7.304085   8.539036   7.342982   6.311186
    42  H    2.071106   3.386662   4.560045   1.080000   1.806190
                   16         17         18         19         20
    16  H    0.000000
    17  C    5.388381   0.000000
    18  H    5.455550   1.096176   0.000000
    19  H    6.142248   1.097299   1.755838   0.000000
    20  H    5.923317   1.095522   1.779993   1.761134   0.000000
    21  C    4.718363   2.500912   3.476870   2.716563   2.782753
    22  H    4.254261   3.473304   4.348675   3.701148   3.825849
    23  H    5.236396   2.810961   3.835981   3.139301   2.648803
    24  H    5.604548   2.690321   3.701050   2.442005   3.047905
    25  O    2.820408   3.751949   4.252210   4.576965   3.874606
    26  C    3.549054   4.653312   5.122115   5.554295   4.492286
    27  C    4.054319   2.871277   2.852849   3.965592   2.766404
    28  C    4.662482   3.957262   4.038539   5.025536   3.551439
    29  C    4.410747   4.778070   5.086312   5.781107   4.398054
    30  H    4.658844   2.692520   2.288630   3.754204   2.668222
    31  H    5.597057   4.550022   4.488633   5.599009   4.012903
    32  C    5.445911   6.085844   6.383743   7.075499   5.585971
    33  C    3.987897   5.885084   6.436637   6.697617   5.730802
    34  C    5.094611   6.996517   7.510028   7.850770   6.697345
    35  C    5.721676   7.073027   7.478351   8.006442   6.627161
    36  H    6.257422   6.497253   6.686542   7.506101   5.901454
    37  H    3.832192   6.154649   6.770977   6.857139   6.138440
    38  H    5.699655   7.953453   8.508401   8.760692   7.679803
    39  N    7.023378   8.444150   8.821505   9.381231   7.925306
    40  O    7.831304   8.725475   9.036922   9.678490   8.099538
    41  O    7.420333   9.376215   9.791934  10.288394   8.921564
    42  H    1.785565   5.528314   5.244983   6.376904   6.071291
                   21         22         23         24         25
    21  C    0.000000
    22  H    1.096208   0.000000
    23  H    1.095591   1.777618   0.000000
    24  H    1.096676   1.757071   1.765470   0.000000
    25  O    2.675287   2.502580   2.723279   3.764149   0.000000
    26  C    3.710997   3.592964   3.387165   4.798359   1.367338
    27  C    3.668872   4.181118   3.591732   4.552897   2.493685
    28  C    4.442598   4.881557   4.071230   5.388265   2.880569
    29  C    4.481632   4.646159   4.003773   5.524461   2.439606
    30  H    4.194786   4.843272   4.222337   4.912110   3.469026
    31  H    5.367238   5.895390   4.929292   6.244073   3.964131
    32  C    5.734457   5.846858   5.128145   6.758946   3.697978
    33  C    4.495647   4.096824   4.141422   5.534829   2.343123
    34  C    5.752593   5.424407   5.247867   6.775655   3.634361
    35  C    6.271261   6.167021   5.659018   7.302402   4.149616
    36  H    6.486234   6.723330   5.842318   7.470483   4.590869
    37  H    4.416224   3.773421   4.223440   5.386013   2.550322
    38  H    6.504372   6.050125   6.018950   7.486581   4.491238
    39  N    7.693106   7.591424   7.021313   8.702888   5.614650
    40  O    8.264967   8.308931   7.525347   9.246565   6.308518
    41  O    8.390737   8.146578   7.765048   9.399125   6.262823
    42  H    5.650727   5.480241   6.141562   6.506797   3.794446
                   26         27         28         29         30
    26  C    0.000000
    27  C    2.762152   0.000000
    28  C    2.463501   1.335494   0.000000
    29  C    1.398057   2.382777   1.450545   0.000000
    30  H    3.846741   1.085861   2.085484   3.373744   0.000000
    31  H    3.445446   2.118027   1.083951   2.208134   2.426862
    32  C    2.421304   3.659545   2.471939   1.399181   4.544082
    33  C    1.397640   4.156834   3.747432   2.424667   5.239812
    34  C    2.422641   5.003400   4.255208   2.806203   6.063973
    35  C    2.785435   4.794821   3.749221   2.418430   5.766634
    36  H    3.407173   4.011412   2.691948   2.158847   4.712205
    37  H    2.155507   4.791539   4.616782   3.407809   5.852489
    38  H    3.403098   6.059893   5.342511   3.894031   7.126850
    39  N    4.251342   6.104468   4.946298   3.757827   7.009711
    40  O    4.952591   6.351495   5.076211   4.145584   7.139777
    41  O    4.946074   7.079397   6.005460   4.721418   8.029879
    42  H    4.360315   3.885129   4.543737   4.725152   4.153952
                   31         32         33         34         35
    31  H    0.000000
    32  C    2.721787   0.000000
    33  C    4.627230   2.800542   0.000000
    34  C    4.901494   2.435573   1.396352   0.000000
    35  C    4.115704   1.400952   2.413220   1.400317   0.000000
    36  H    2.487004   1.088441   3.888927   3.423098   2.167973
    37  H    5.571380   3.888290   1.087813   2.156513   3.401546
    38  H    5.975961   3.428023   2.149824   1.088052   2.175284
    39  N    5.079867   2.476907   3.755452   2.479258   1.466389
    40  O    4.947259   2.749742   4.724339   3.572562   2.317768
    41  O    6.230647   3.567901   4.140427   2.752494   2.317609
    42  H    5.241529   5.718428   5.102453   6.020069   6.282115
                   36         37         38         39         40
    36  H    0.000000
    37  H    4.976631   0.000000
    38  H    4.331727   2.472557   0.000000
    39  N    2.698316   4.632868   2.715850   0.000000
    40  O    2.464669   5.685273   3.926183   1.239535   0.000000
    41  O    3.905691   4.809420   2.485856   1.238592   2.195209
    42  H    6.278072   5.247449   6.755147   7.491095   8.093851
                   41         42
    41  O    0.000000
    42  H    8.030220   0.000000
 Stoichiometry    C19H18N2O3
 Framework group  C1[X(C19H18N2O3)]
 Deg. of freedom   120
 Full point group                 C1      NOp   1
 Largest Abelian subgroup         C1      NOp   1
 Largest concise Abelian subgroup C1      NOp   1
                         Standard orientation:                         
 ---------------------------------------------------------------------
 Center     Atomic      Atomic             Coordinates (Angstroms)
 Number     Number       Type             X           Y           Z
 ---------------------------------------------------------------------
      1          6           0        5.228557   -1.563241   -0.133005
      2          6           0        3.953829   -1.755604   -0.677711
      3          6           0        2.949755   -0.822722   -0.452273
      4          6           0        3.250569    0.314584    0.300045
      5          6           0        4.513404    0.517171    0.857186
      6          6           0        5.505683   -0.433914    0.638320
      7          1           0        3.794753   -2.622668   -1.302683
      8          1           0        6.500842   -0.289753    1.050317
      9          1           0        6.011100   -2.292321   -0.327476
     10          1           0        4.735078    1.408102    1.436172
     11          7           0        1.639980   -0.838291   -0.963299
     12          6           0        0.939712    0.335650   -0.343261
     13          6           0        2.063478    1.247461    0.347488
     14          6           0        0.915793   -2.119173   -0.972515
     15          1           0       -0.157961   -1.923682   -1.059075
     16          1           0        1.057428   -2.663804   -0.030410
     17          6           0        2.434382    2.530709   -0.424989
     18          1           0        2.781307    2.315913   -1.442392
     19          1           0        3.248997    3.073263    0.071099
     20          1           0        1.583808    3.218653   -0.483522
     21          6           0        1.725677    1.633684    1.799341
     22          1           0        1.607177    0.753951    2.442536
     23          1           0        0.801037    2.219843    1.841516
     24          1           0        2.518765    2.243483    2.248624
     25          8           0        0.045586   -0.134640    0.700484
     26          6           0       -1.307095   -0.073020    0.510562
     27          6           0        0.237675    1.025359   -1.498599
     28          6           0       -1.086039    1.164402   -1.608107
     29          6           0       -1.911250    0.550855   -0.585039
     30          1           0        0.867121    1.400372   -2.300009
     31          1           0       -1.540777    1.657810   -2.459407
     32          6           0       -3.303373    0.523978   -0.722801
     33          6           0       -2.087687   -0.724363    1.469637
     34          6           0       -3.475869   -0.777661    1.328540
     35          6           0       -4.077139   -0.152549    0.229178
     36          1           0       -3.772776    0.998999   -1.582289
     37          1           0       -1.607885   -1.217128    2.312437
     38          1           0       -4.066540   -1.313251    2.068884
     39          7           0       -5.530823   -0.231575    0.053520
     40          8           0       -6.052700    0.534526   -0.769390
     41          8           0       -6.147920   -1.063285    0.732900
     42          1           0        1.294341   -2.701162   -1.799794
 ---------------------------------------------------------------------
 Rotational constants (GHZ):           0.7109640           0.1184230           0.1146970
 Leave Link  202 at Sun Mar 10 03:59:59 2024, MaxMem=  2684354560 cpu:               0.5 elap:               0.0
 (Enter /s/ls4/groups/g0130/bin/g16/l301.exe)
 Standard basis: def2TZVP (5D, 7F)
 Ernie: Thresh=  0.10000D-02 Tol=  0.10000D-05 Strict=F.
 AO basis set in the form of general basis input (Overlap normalization):
      1 0
 S   6 1.00       0.000000000000
      0.1357534968D+05  0.6064550360D-03
      0.2035233368D+04  0.4697908888D-02
      0.4632256236D+03  0.2433247765D-01
      0.1312001960D+03  0.9739996831D-01
      0.4285301589D+02  0.3019558425D+00
      0.1558418577D+02  0.6623360914D+00
 S   2 1.00       0.000000000000
      0.6206713851D+01  0.6559530854D+00
      0.2576489653D+01  0.3758563329D+00
 S   1 1.00       0.000000000000
      0.5769633942D+00  0.1000000000D+01
 S   1 1.00       0.000000000000
      0.2297283136D+00  0.1000000000D+01
 S   1 1.00       0.000000000000
      0.9516444003D-01  0.1000000000D+01
 P   4 1.00       0.000000000000
      0.3469723224D+02  0.1132722000D-01
      0.7958262283D+01  0.7616965920D-01
      0.2378082688D+01  0.3019225220D+00
      0.8143320818D+00  0.7278502735D+00
 P   1 1.00       0.000000000000
      0.2888754725D+00  0.1000000000D+01
 P   1 1.00       0.000000000000
      0.1005682367D+00  0.1000000000D+01
 D   1 1.00       0.000000000000
      0.1097000000D+01  0.1000000000D+01
 D   1 1.00       0.000000000000
      0.3180000000D+00  0.1000000000D+01
 F   1 1.00       0.000000000000
      0.7610000000D+00  0.1000000000D+01
 ****
      2 0
 S   6 1.00       0.000000000000
      0.1357534968D+05  0.6064550360D-03
      0.2035233368D+04  0.4697908888D-02
      0.4632256236D+03  0.2433247765D-01
      0.1312001960D+03  0.9739996831D-01
      0.4285301589D+02  0.3019558425D+00
      0.1558418577D+02  0.6623360914D+00
 S   2 1.00       0.000000000000
      0.6206713851D+01  0.6559530854D+00
      0.2576489653D+01  0.3758563329D+00
 S   1 1.00       0.000000000000
      0.5769633942D+00  0.1000000000D+01
 S   1 1.00       0.000000000000
      0.2297283136D+00  0.1000000000D+01
 S   1 1.00       0.000000000000
      0.9516444003D-01  0.1000000000D+01
 P   4 1.00       0.000000000000
      0.3469723224D+02  0.1132722000D-01
      0.7958262283D+01  0.7616965920D-01
      0.2378082688D+01  0.3019225220D+00
      0.8143320818D+00  0.7278502735D+00
 P   1 1.00       0.000000000000
      0.2888754725D+00  0.1000000000D+01
 P   1 1.00       0.000000000000
      0.1005682367D+00  0.1000000000D+01
 D   1 1.00       0.000000000000
      0.1097000000D+01  0.1000000000D+01
 D   1 1.00       0.000000000000
      0.3180000000D+00  0.1000000000D+01
 F   1 1.00       0.000000000000
      0.7610000000D+00  0.1000000000D+01
 ****
      3 0
 S   6 1.00       0.000000000000
      0.1357534968D+05  0.6064550360D-03
      0.2035233368D+04  0.4697908888D-02
      0.4632256236D+03  0.2433247765D-01
      0.1312001960D+03  0.9739996831D-01
      0.4285301589D+02  0.3019558425D+00
      0.1558418577D+02  0.6623360914D+00
 S   2 1.00       0.000000000000
      0.6206713851D+01  0.6559530854D+00
      0.2576489653D+01  0.3758563329D+00
 S   1 1.00       0.000000000000
      0.5769633942D+00  0.1000000000D+01
 S   1 1.00       0.000000000000
      0.2297283136D+00  0.1000000000D+01
 S   1 1.00       0.000000000000
      0.9516444003D-01  0.1000000000D+01
 P   4 1.00       0.000000000000
      0.3469723224D+02  0.1132722000D-01
      0.7958262283D+01  0.7616965920D-01
      0.2378082688D+01  0.3019225220D+00
      0.8143320818D+00  0.7278502735D+00
 P   1 1.00       0.000000000000
      0.2888754725D+00  0.1000000000D+01
 P   1 1.00       0.000000000000
      0.1005682367D+00  0.1000000000D+01
 D   1 1.00       0.000000000000
      0.1097000000D+01  0.1000000000D+01
 D   1 1.00       0.000000000000
      0.3180000000D+00  0.1000000000D+01
 F   1 1.00       0.000000000000
      0.7610000000D+00  0.1000000000D+01
 ****
      4 0
 S   6 1.00       0.000000000000
      0.1357534968D+05  0.6064550360D-03
      0.2035233368D+04  0.4697908888D-02
      0.4632256236D+03  0.2433247765D-01
      0.1312001960D+03  0.9739996831D-01
      0.4285301589D+02  0.3019558425D+00
      0.1558418577D+02  0.6623360914D+00
 S   2 1.00       0.000000000000
      0.6206713851D+01  0.6559530854D+00
      0.2576489653D+01  0.3758563329D+00
 S   1 1.00       0.000000000000
      0.5769633942D+00  0.1000000000D+01
 S   1 1.00       0.000000000000
      0.2297283136D+00  0.1000000000D+01
 S   1 1.00       0.000000000000
      0.9516444003D-01  0.1000000000D+01
 P   4 1.00       0.000000000000
      0.3469723224D+02  0.1132722000D-01
      0.7958262283D+01  0.7616965920D-01
      0.2378082688D+01  0.3019225220D+00
      0.8143320818D+00  0.7278502735D+00
 P   1 1.00       0.000000000000
      0.2888754725D+00  0.1000000000D+01
 P   1 1.00       0.000000000000
      0.1005682367D+00  0.1000000000D+01
 D   1 1.00       0.000000000000
      0.1097000000D+01  0.1000000000D+01
 D   1 1.00       0.000000000000
      0.3180000000D+00  0.1000000000D+01
 F   1 1.00       0.000000000000
      0.7610000000D+00  0.1000000000D+01
 ****
      5 0
 S   6 1.00       0.000000000000
      0.1357534968D+05  0.6064550360D-03
      0.2035233368D+04  0.4697908888D-02
      0.4632256236D+03  0.2433247765D-01
      0.1312001960D+03  0.9739996831D-01
      0.4285301589D+02  0.3019558425D+00
      0.1558418577D+02  0.6623360914D+00
 S   2 1.00       0.000000000000
      0.6206713851D+01  0.6559530854D+00
      0.2576489653D+01  0.3758563329D+00
 S   1 1.00       0.000000000000
      0.5769633942D+00  0.1000000000D+01
 S   1 1.00       0.000000000000
      0.2297283136D+00  0.1000000000D+01
 S   1 1.00       0.000000000000
      0.9516444003D-01  0.1000000000D+01
 P   4 1.00       0.000000000000
      0.3469723224D+02  0.1132722000D-01
      0.7958262283D+01  0.7616965920D-01
      0.2378082688D+01  0.3019225220D+00
      0.8143320818D+00  0.7278502735D+00
 P   1 1.00       0.000000000000
      0.2888754725D+00  0.1000000000D+01
 P   1 1.00       0.000000000000
      0.1005682367D+00  0.1000000000D+01
 D   1 1.00       0.000000000000
      0.1097000000D+01  0.1000000000D+01
 D   1 1.00       0.000000000000
      0.3180000000D+00  0.1000000000D+01
 F   1 1.00       0.000000000000
      0.7610000000D+00  0.1000000000D+01
 ****
      6 0
 S   6 1.00       0.000000000000
      0.1357534968D+05  0.6064550360D-03
      0.2035233368D+04  0.4697908888D-02
      0.4632256236D+03  0.2433247765D-01
      0.1312001960D+03  0.9739996831D-01
      0.4285301589D+02  0.3019558425D+00
      0.1558418577D+02  0.6623360914D+00
 S   2 1.00       0.000000000000
      0.6206713851D+01  0.6559530854D+00
      0.2576489653D+01  0.3758563329D+00
 S   1 1.00       0.000000000000
      0.5769633942D+00  0.1000000000D+01
 S   1 1.00       0.000000000000
      0.2297283136D+00  0.1000000000D+01
 S   1 1.00       0.000000000000
      0.9516444003D-01  0.1000000000D+01
 P   4 1.00       0.000000000000
      0.3469723224D+02  0.1132722000D-01
      0.7958262283D+01  0.7616965920D-01
      0.2378082688D+01  0.3019225220D+00
      0.8143320818D+00  0.7278502735D+00
 P   1 1.00       0.000000000000
      0.2888754725D+00  0.1000000000D+01
 P   1 1.00       0.000000000000
      0.1005682367D+00  0.1000000000D+01
 D   1 1.00       0.000000000000
      0.1097000000D+01  0.1000000000D+01
 D   1 1.00       0.000000000000
      0.3180000000D+00  0.1000000000D+01
 F   1 1.00       0.000000000000
      0.7610000000D+00  0.1000000000D+01
 ****
      7 0
 S   3 1.00       0.000000000000
      0.3406134100D+02  0.2543930721D-01
      0.5123574600D+01  0.1900859489D+00
      0.1164662600D+01  0.8524411301D+00
 S   1 1.00       0.000000000000
      0.3272304100D+00  0.1000000000D+01
 S   1 1.00       0.000000000000
      0.1030724100D+00  0.1000000000D+01
 P   1 1.00       0.000000000000
      0.8000000000D+00  0.1000000000D+01
 ****
      8 0
 S   3 1.00       0.000000000000
      0.3406134100D+02  0.2543930721D-01
      0.5123574600D+01  0.1900859489D+00
      0.1164662600D+01  0.8524411301D+00
 S   1 1.00       0.000000000000
      0.3272304100D+00  0.1000000000D+01
 S   1 1.00       0.000000000000
      0.1030724100D+00  0.1000000000D+01
 P   1 1.00       0.000000000000
      0.8000000000D+00  0.1000000000D+01
 ****
      9 0
 S   3 1.00       0.000000000000
      0.3406134100D+02  0.2543930721D-01
      0.5123574600D+01  0.1900859489D+00
      0.1164662600D+01  0.8524411301D+00
 S   1 1.00       0.000000000000
      0.3272304100D+00  0.1000000000D+01
 S   1 1.00       0.000000000000
      0.1030724100D+00  0.1000000000D+01
 P   1 1.00       0.000000000000
      0.8000000000D+00  0.1000000000D+01
 ****
     10 0
 S   3 1.00       0.000000000000
      0.3406134100D+02  0.2543930721D-01
      0.5123574600D+01  0.1900859489D+00
      0.1164662600D+01  0.8524411301D+00
 S   1 1.00       0.000000000000
      0.3272304100D+00  0.1000000000D+01
 S   1 1.00       0.000000000000
      0.1030724100D+00  0.1000000000D+01
 P   1 1.00       0.000000000000
      0.8000000000D+00  0.1000000000D+01
 ****
     11 0
 S   6 1.00       0.000000000000
      0.1973080065D+05  0.5862640263D-03
      0.2957895874D+04  0.4542882059D-02
      0.6732213360D+03  0.2355841345D-01
      0.1906824949D+03  0.9470919329D-01
      0.6229544190D+02  0.2971978491D+00
      0.2265416118D+02  0.6691624690D+00
 S   2 1.00       0.000000000000
      0.8979147743D+01  0.6459668363D+00
      0.3686300237D+01  0.3870057439D+00
 S   1 1.00       0.000000000000
      0.8466007680D+00  0.1000000000D+01
 S   1 1.00       0.000000000000
      0.3364713377D+00  0.1000000000D+01
 S   1 1.00       0.000000000000
      0.1364765367D+00  0.1000000000D+01
 P   4 1.00       0.000000000000
      0.4920038051D+02  0.1144882510D-01
      0.1134679054D+02  0.7842233797D-01
      0.3427397241D+01  0.3081809474D+00
      0.1178552513D+01  0.7202719637D+00
 P   1 1.00       0.000000000000
      0.4164220497D+00  0.1000000000D+01
 P   1 1.00       0.000000000000
      0.1426082601D+00  0.1000000000D+01
 D   1 1.00       0.000000000000
      0.1654000000D+01  0.1000000000D+01
 D   1 1.00       0.000000000000
      0.4690000000D+00  0.1000000000D+01
 F   1 1.00       0.000000000000
      0.1093000000D+01  0.1000000000D+01
 ****
     12 0
 S   6 1.00       0.000000000000
      0.1357534968D+05  0.6064550360D-03
      0.2035233368D+04  0.4697908888D-02
      0.4632256236D+03  0.2433247765D-01
      0.1312001960D+03  0.9739996831D-01
      0.4285301589D+02  0.3019558425D+00
      0.1558418577D+02  0.6623360914D+00
 S   2 1.00       0.000000000000
      0.6206713851D+01  0.6559530854D+00
      0.2576489653D+01  0.3758563329D+00
 S   1 1.00       0.000000000000
      0.5769633942D+00  0.1000000000D+01
 S   1 1.00       0.000000000000
      0.2297283136D+00  0.1000000000D+01
 S   1 1.00       0.000000000000
      0.9516444003D-01  0.1000000000D+01
 P   4 1.00       0.000000000000
      0.3469723224D+02  0.1132722000D-01
      0.7958262283D+01  0.7616965920D-01
      0.2378082688D+01  0.3019225220D+00
      0.8143320818D+00  0.7278502735D+00
 P   1 1.00       0.000000000000
      0.2888754725D+00  0.1000000000D+01
 P   1 1.00       0.000000000000
      0.1005682367D+00  0.1000000000D+01
 D   1 1.00       0.000000000000
      0.1097000000D+01  0.1000000000D+01
 D   1 1.00       0.000000000000
      0.3180000000D+00  0.1000000000D+01
 F   1 1.00       0.000000000000
      0.7610000000D+00  0.1000000000D+01
 ****
     13 0
 S   6 1.00       0.000000000000
      0.1357534968D+05  0.6064550360D-03
      0.2035233368D+04  0.4697908888D-02
      0.4632256236D+03  0.2433247765D-01
      0.1312001960D+03  0.9739996831D-01
      0.4285301589D+02  0.3019558425D+00
      0.1558418577D+02  0.6623360914D+00
 S   2 1.00       0.000000000000
      0.6206713851D+01  0.6559530854D+00
      0.2576489653D+01  0.3758563329D+00
 S   1 1.00       0.000000000000
      0.5769633942D+00  0.1000000000D+01
 S   1 1.00       0.000000000000
      0.2297283136D+00  0.1000000000D+01
 S   1 1.00       0.000000000000
      0.9516444003D-01  0.1000000000D+01
 P   4 1.00       0.000000000000
      0.3469723224D+02  0.1132722000D-01
      0.7958262283D+01  0.7616965920D-01
      0.2378082688D+01  0.3019225220D+00
      0.8143320818D+00  0.7278502735D+00
 P   1 1.00       0.000000000000
      0.2888754725D+00  0.1000000000D+01
 P   1 1.00       0.000000000000
      0.1005682367D+00  0.1000000000D+01
 D   1 1.00       0.000000000000
      0.1097000000D+01  0.1000000000D+01
 D   1 1.00       0.000000000000
      0.3180000000D+00  0.1000000000D+01
 F   1 1.00       0.000000000000
      0.7610000000D+00  0.1000000000D+01
 ****
     14 0
 S   6 1.00       0.000000000000
      0.1357534968D+05  0.6064550360D-03
      0.2035233368D+04  0.4697908888D-02
      0.4632256236D+03  0.2433247765D-01
      0.1312001960D+03  0.9739996831D-01
      0.4285301589D+02  0.3019558425D+00
      0.1558418577D+02  0.6623360914D+00
 S   2 1.00       0.000000000000
      0.6206713851D+01  0.6559530854D+00
      0.2576489653D+01  0.3758563329D+00
 S   1 1.00       0.000000000000
      0.5769633942D+00  0.1000000000D+01
 S   1 1.00       0.000000000000
      0.2297283136D+00  0.1000000000D+01
 S   1 1.00       0.000000000000
      0.9516444003D-01  0.1000000000D+01
 P   4 1.00       0.000000000000
      0.3469723224D+02  0.1132722000D-01
      0.7958262283D+01  0.7616965920D-01
      0.2378082688D+01  0.3019225220D+00
      0.8143320818D+00  0.7278502735D+00
 P   1 1.00       0.000000000000
      0.2888754725D+00  0.1000000000D+01
 P   1 1.00       0.000000000000
      0.1005682367D+00  0.1000000000D+01
 D   1 1.00       0.000000000000
      0.1097000000D+01  0.1000000000D+01
 D   1 1.00       0.000000000000
      0.3180000000D+00  0.1000000000D+01
 F   1 1.00       0.000000000000
      0.7610000000D+00  0.1000000000D+01
 ****
     15 0
 S   3 1.00       0.000000000000
      0.3406134100D+02  0.2543930721D-01
      0.5123574600D+01  0.1900859489D+00
      0.1164662600D+01  0.8524411301D+00
 S   1 1.00       0.000000000000
      0.3272304100D+00  0.1000000000D+01
 S   1 1.00       0.000000000000
      0.1030724100D+00  0.1000000000D+01
 P   1 1.00       0.000000000000
      0.8000000000D+00  0.1000000000D+01
 ****
     16 0
 S   3 1.00       0.000000000000
      0.3406134100D+02  0.2543930721D-01
      0.5123574600D+01  0.1900859489D+00
      0.1164662600D+01  0.8524411301D+00
 S   1 1.00       0.000000000000
      0.3272304100D+00  0.1000000000D+01
 S   1 1.00       0.000000000000
      0.1030724100D+00  0.1000000000D+01
 P   1 1.00       0.000000000000
      0.8000000000D+00  0.1000000000D+01
 ****
     17 0
 S   6 1.00       0.000000000000
      0.1357534968D+05  0.6064550360D-03
      0.2035233368D+04  0.4697908888D-02
      0.4632256236D+03  0.2433247765D-01
      0.1312001960D+03  0.9739996831D-01
      0.4285301589D+02  0.3019558425D+00
      0.1558418577D+02  0.6623360914D+00
 S   2 1.00       0.000000000000
      0.6206713851D+01  0.6559530854D+00
      0.2576489653D+01  0.3758563329D+00
 S   1 1.00       0.000000000000
      0.5769633942D+00  0.1000000000D+01
 S   1 1.00       0.000000000000
      0.2297283136D+00  0.1000000000D+01
 S   1 1.00       0.000000000000
      0.9516444003D-01  0.1000000000D+01
 P   4 1.00       0.000000000000
      0.3469723224D+02  0.1132722000D-01
      0.7958262283D+01  0.7616965920D-01
      0.2378082688D+01  0.3019225220D+00
      0.8143320818D+00  0.7278502735D+00
 P   1 1.00       0.000000000000
      0.2888754725D+00  0.1000000000D+01
 P   1 1.00       0.000000000000
      0.1005682367D+00  0.1000000000D+01
 D   1 1.00       0.000000000000
      0.1097000000D+01  0.1000000000D+01
 D   1 1.00       0.000000000000
      0.3180000000D+00  0.1000000000D+01
 F   1 1.00       0.000000000000
      0.7610000000D+00  0.1000000000D+01
 ****
     18 0
 S   3 1.00       0.000000000000
      0.3406134100D+02  0.2543930721D-01
      0.5123574600D+01  0.1900859489D+00
      0.1164662600D+01  0.8524411301D+00
 S   1 1.00       0.000000000000
      0.3272304100D+00  0.1000000000D+01
 S   1 1.00       0.000000000000
      0.1030724100D+00  0.1000000000D+01
 P   1 1.00       0.000000000000
      0.8000000000D+00  0.1000000000D+01
 ****
     19 0
 S   3 1.00       0.000000000000
      0.3406134100D+02  0.2543930721D-01
      0.5123574600D+01  0.1900859489D+00
      0.1164662600D+01  0.8524411301D+00
 S   1 1.00       0.000000000000
      0.3272304100D+00  0.1000000000D+01
 S   1 1.00       0.000000000000
      0.1030724100D+00  0.1000000000D+01
 P   1 1.00       0.000000000000
      0.8000000000D+00  0.1000000000D+01
 ****
     20 0
 S   3 1.00       0.000000000000
      0.3406134100D+02  0.2543930721D-01
      0.5123574600D+01  0.1900859489D+00
      0.1164662600D+01  0.8524411301D+00
 S   1 1.00       0.000000000000
      0.3272304100D+00  0.1000000000D+01
 S   1 1.00       0.000000000000
      0.1030724100D+00  0.1000000000D+01
 P   1 1.00       0.000000000000
      0.8000000000D+00  0.1000000000D+01
 ****
     21 0
 S   6 1.00       0.000000000000
      0.1357534968D+05  0.6064550360D-03
      0.2035233368D+04  0.4697908888D-02
      0.4632256236D+03  0.2433247765D-01
      0.1312001960D+03  0.9739996831D-01
      0.4285301589D+02  0.3019558425D+00
      0.1558418577D+02  0.6623360914D+00
 S   2 1.00       0.000000000000
      0.6206713851D+01  0.6559530854D+00
      0.2576489653D+01  0.3758563329D+00
 S   1 1.00       0.000000000000
      0.5769633942D+00  0.1000000000D+01
 S   1 1.00       0.000000000000
      0.2297283136D+00  0.1000000000D+01
 S   1 1.00       0.000000000000
      0.9516444003D-01  0.1000000000D+01
 P   4 1.00       0.000000000000
      0.3469723224D+02  0.1132722000D-01
      0.7958262283D+01  0.7616965920D-01
      0.2378082688D+01  0.3019225220D+00
      0.8143320818D+00  0.7278502735D+00
 P   1 1.00       0.000000000000
      0.2888754725D+00  0.1000000000D+01
 P   1 1.00       0.000000000000
      0.1005682367D+00  0.1000000000D+01
 D   1 1.00       0.000000000000
      0.1097000000D+01  0.1000000000D+01
 D   1 1.00       0.000000000000
      0.3180000000D+00  0.1000000000D+01
 F   1 1.00       0.000000000000
      0.7610000000D+00  0.1000000000D+01
 ****
     22 0
 S   3 1.00       0.000000000000
      0.3406134100D+02  0.2543930721D-01
      0.5123574600D+01  0.1900859489D+00
      0.1164662600D+01  0.8524411301D+00
 S   1 1.00       0.000000000000
      0.3272304100D+00  0.1000000000D+01
 S   1 1.00       0.000000000000
      0.1030724100D+00  0.1000000000D+01
 P   1 1.00       0.000000000000
      0.8000000000D+00  0.1000000000D+01
 ****
     23 0
 S   3 1.00       0.000000000000
      0.3406134100D+02  0.2543930721D-01
      0.5123574600D+01  0.1900859489D+00
      0.1164662600D+01  0.8524411301D+00
 S   1 1.00       0.000000000000
      0.3272304100D+00  0.1000000000D+01
 S   1 1.00       0.000000000000
      0.1030724100D+00  0.1000000000D+01
 P   1 1.00       0.000000000000
      0.8000000000D+00  0.1000000000D+01
 ****
     24 0
 S   3 1.00       0.000000000000
      0.3406134100D+02  0.2543930721D-01
      0.5123574600D+01  0.1900859489D+00
      0.1164662600D+01  0.8524411301D+00
 S   1 1.00       0.000000000000
      0.3272304100D+00  0.1000000000D+01
 S   1 1.00       0.000000000000
      0.1030724100D+00  0.1000000000D+01
 P   1 1.00       0.000000000000
      0.8000000000D+00  0.1000000000D+01
 ****
     25 0
 S   6 1.00       0.000000000000
      0.2703238263D+05  0.5722733521D-03
      0.4052387139D+04  0.4435323349D-02
      0.9223272271D+03  0.2302010771D-01
      0.2612407099D+03  0.9282249067D-01
      0.8535464135D+02  0.2937850001D+00
      0.3103503524D+02  0.6740160450D+00
 S   2 1.00       0.000000000000
      0.1226086073D+02  0.6383993703D+00
      0.4998707601D+01  0.3953458713D+00
 S   1 1.00       0.000000000000
      0.1170310816D+01  0.1000000000D+01
 S   1 1.00       0.000000000000
      0.4647474099D+00  0.1000000000D+01
 S   1 1.00       0.000000000000
      0.1850453636D+00  0.1000000000D+01
 P   4 1.00       0.000000000000
      0.6327495480D+02  0.1201833222D-01
      0.1462704938D+02  0.8300542179D-01
      0.4450122346D+01  0.3199174393D+00
      0.1527579965D+01  0.7071554292D+00
 P   1 1.00       0.000000000000
      0.5293511794D+00  0.1000000000D+01
 P   1 1.00       0.000000000000
      0.1747842127D+00  0.1000000000D+01
 D   1 1.00       0.000000000000
      0.2314000000D+01  0.1000000000D+01
 D   1 1.00       0.000000000000
      0.6450000000D+00  0.1000000000D+01
 F   1 1.00       0.000000000000
      0.1428000000D+01  0.1000000000D+01
 ****
     26 0
 S   6 1.00       0.000000000000
      0.1357534968D+05  0.6064550360D-03
      0.2035233368D+04  0.4697908888D-02
      0.4632256236D+03  0.2433247765D-01
      0.1312001960D+03  0.9739996831D-01
      0.4285301589D+02  0.3019558425D+00
      0.1558418577D+02  0.6623360914D+00
 S   2 1.00       0.000000000000
      0.6206713851D+01  0.6559530854D+00
      0.2576489653D+01  0.3758563329D+00
 S   1 1.00       0.000000000000
      0.5769633942D+00  0.1000000000D+01
 S   1 1.00       0.000000000000
      0.2297283136D+00  0.1000000000D+01
 S   1 1.00       0.000000000000
      0.9516444003D-01  0.1000000000D+01
 P   4 1.00       0.000000000000
      0.3469723224D+02  0.1132722000D-01
      0.7958262283D+01  0.7616965920D-01
      0.2378082688D+01  0.3019225220D+00
      0.8143320818D+00  0.7278502735D+00
 P   1 1.00       0.000000000000
      0.2888754725D+00  0.1000000000D+01
 P   1 1.00       0.000000000000
      0.1005682367D+00  0.1000000000D+01
 D   1 1.00       0.000000000000
      0.1097000000D+01  0.1000000000D+01
 D   1 1.00       0.000000000000
      0.3180000000D+00  0.1000000000D+01
 F   1 1.00       0.000000000000
      0.7610000000D+00  0.1000000000D+01
 ****
     27 0
 S   6 1.00       0.000000000000
      0.1357534968D+05  0.6064550360D-03
      0.2035233368D+04  0.4697908888D-02
      0.4632256236D+03  0.2433247765D-01
      0.1312001960D+03  0.9739996831D-01
      0.4285301589D+02  0.3019558425D+00
      0.1558418577D+02  0.6623360914D+00
 S   2 1.00       0.000000000000
      0.6206713851D+01  0.6559530854D+00
      0.2576489653D+01  0.3758563329D+00
 S   1 1.00       0.000000000000
      0.5769633942D+00  0.1000000000D+01
 S   1 1.00       0.000000000000
      0.2297283136D+00  0.1000000000D+01
 S   1 1.00       0.000000000000
      0.9516444003D-01  0.1000000000D+01
 P   4 1.00       0.000000000000
      0.3469723224D+02  0.1132722000D-01
      0.7958262283D+01  0.7616965920D-01
      0.2378082688D+01  0.3019225220D+00
      0.8143320818D+00  0.7278502735D+00
 P   1 1.00       0.000000000000
      0.2888754725D+00  0.1000000000D+01
 P   1 1.00       0.000000000000
      0.1005682367D+00  0.1000000000D+01
 D   1 1.00       0.000000000000
      0.1097000000D+01  0.1000000000D+01
 D   1 1.00       0.000000000000
      0.3180000000D+00  0.1000000000D+01
 F   1 1.00       0.000000000000
      0.7610000000D+00  0.1000000000D+01
 ****
     28 0
 S   6 1.00       0.000000000000
      0.1357534968D+05  0.6064550360D-03
      0.2035233368D+04  0.4697908888D-02
      0.4632256236D+03  0.2433247765D-01
      0.1312001960D+03  0.9739996831D-01
      0.4285301589D+02  0.3019558425D+00
      0.1558418577D+02  0.6623360914D+00
 S   2 1.00       0.000000000000
      0.6206713851D+01  0.6559530854D+00
      0.2576489653D+01  0.3758563329D+00
 S   1 1.00       0.000000000000
      0.5769633942D+00  0.1000000000D+01
 S   1 1.00       0.000000000000
      0.2297283136D+00  0.1000000000D+01
 S   1 1.00       0.000000000000
      0.9516444003D-01  0.1000000000D+01
 P   4 1.00       0.000000000000
      0.3469723224D+02  0.1132722000D-01
      0.7958262283D+01  0.7616965920D-01
      0.2378082688D+01  0.3019225220D+00
      0.8143320818D+00  0.7278502735D+00
 P   1 1.00       0.000000000000
      0.2888754725D+00  0.1000000000D+01
 P   1 1.00       0.000000000000
      0.1005682367D+00  0.1000000000D+01
 D   1 1.00       0.000000000000
      0.1097000000D+01  0.1000000000D+01
 D   1 1.00       0.000000000000
      0.3180000000D+00  0.1000000000D+01
 F   1 1.00       0.000000000000
      0.7610000000D+00  0.1000000000D+01
 ****
     29 0
 S   6 1.00       0.000000000000
      0.1357534968D+05  0.6064550360D-03
      0.2035233368D+04  0.4697908888D-02
      0.4632256236D+03  0.2433247765D-01
      0.1312001960D+03  0.9739996831D-01
      0.4285301589D+02  0.3019558425D+00
      0.1558418577D+02  0.6623360914D+00
 S   2 1.00       0.000000000000
      0.6206713851D+01  0.6559530854D+00
      0.2576489653D+01  0.3758563329D+00
 S   1 1.00       0.000000000000
      0.5769633942D+00  0.1000000000D+01
 S   1 1.00       0.000000000000
      0.2297283136D+00  0.1000000000D+01
 S   1 1.00       0.000000000000
      0.9516444003D-01  0.1000000000D+01
 P   4 1.00       0.000000000000
      0.3469723224D+02  0.1132722000D-01
      0.7958262283D+01  0.7616965920D-01
      0.2378082688D+01  0.3019225220D+00
      0.8143320818D+00  0.7278502735D+00
 P   1 1.00       0.000000000000
      0.2888754725D+00  0.1000000000D+01
 P   1 1.00       0.000000000000
      0.1005682367D+00  0.1000000000D+01
 D   1 1.00       0.000000000000
      0.1097000000D+01  0.1000000000D+01
 D   1 1.00       0.000000000000
      0.3180000000D+00  0.1000000000D+01
 F   1 1.00       0.000000000000
      0.7610000000D+00  0.1000000000D+01
 ****
     30 0
 S   3 1.00       0.000000000000
      0.3406134100D+02  0.2543930721D-01
      0.5123574600D+01  0.1900859489D+00
      0.1164662600D+01  0.8524411301D+00
 S   1 1.00       0.000000000000
      0.3272304100D+00  0.1000000000D+01
 S   1 1.00       0.000000000000
      0.1030724100D+00  0.1000000000D+01
 P   1 1.00       0.000000000000
      0.8000000000D+00  0.1000000000D+01
 ****
     31 0
 S   3 1.00       0.000000000000
      0.3406134100D+02  0.2543930721D-01
      0.5123574600D+01  0.1900859489D+00
      0.1164662600D+01  0.8524411301D+00
 S   1 1.00       0.000000000000
      0.3272304100D+00  0.1000000000D+01
 S   1 1.00       0.000000000000
      0.1030724100D+00  0.1000000000D+01
 P   1 1.00       0.000000000000
      0.8000000000D+00  0.1000000000D+01
 ****
     32 0
 S   6 1.00       0.000000000000
      0.1357534968D+05  0.6064550360D-03
      0.2035233368D+04  0.4697908888D-02
      0.4632256236D+03  0.2433247765D-01
      0.1312001960D+03  0.9739996831D-01
      0.4285301589D+02  0.3019558425D+00
      0.1558418577D+02  0.6623360914D+00
 S   2 1.00       0.000000000000
      0.6206713851D+01  0.6559530854D+00
      0.2576489653D+01  0.3758563329D+00
 S   1 1.00       0.000000000000
      0.5769633942D+00  0.1000000000D+01
 S   1 1.00       0.000000000000
      0.2297283136D+00  0.1000000000D+01
 S   1 1.00       0.000000000000
      0.9516444003D-01  0.1000000000D+01
 P   4 1.00       0.000000000000
      0.3469723224D+02  0.1132722000D-01
      0.7958262283D+01  0.7616965920D-01
[...]
 000093,-0.00000002,-0.00000017,-0.00000077,0.,-0.00000017,-0.00000007,
 0.00000067,0.00000025,-0.00000160,0.00000833,-0.00002826,-0.00004409,0
 .00012222,0.00005093,-0.00000399,-0.00000053,0.00001883,-0.00000353,0.
 00000665,0.00000502,0.00000107,0.00000515,-0.00000096,0.00000614,0.000
 00057,-0.00000354,-0.00000763,0.00000804,-0.00000799,0.00000119,-0.000
 00064,0.00000010,-0.00000407,0.00000263,0.00000218,0.00000118,-0.00000
 291,-0.00000150,-0.00000575,-0.00000049,0.00000351,0.00000086,-0.00000
 079,-0.00000076,0.00000001,-0.00000150,0.00000060,0.00000040,0.0000020
 4,-0.00000179,-0.00010694,0.00004784,0.00034177,-0.00213800,-0.0003036
 8,0.00108144,0.00000150,0.00000128,0.00003014,0.00007647,0.00004775,-0
 .00000813,-0.00037348,0.00049510,0.00035744,0.00000850,-0.00001354,0.0
 0000172,-0.00002279,0.00001376,0.00003181,-0.00399725,0.00045626,-0.00
 315277,-0.00282847,0.00191133,0.00780231,0.10437346,-0.09330116,-0.254
 79075,0.01319989,-0.01079384,-0.01683733,0.00066378,-0.00061412,-0.000
 69253,0.00068028,0.00065829,0.00032219,-0.11265492,0.10185053,0.264265
 35,0.00007212,0.00003051,0.00003794,0.00032300,0.00000955,0.00036480,-
 0.00178886,0.00119099,-0.00179795,0.00001666,-0.00105712,0.00008558,-0
 .00015781,0.00020693,-0.00019475,0.00030719,0.00003781,0.00027128,-0.0
 0003691,0.00003322,-0.00000883,0.00005762,0.00000658,0.00004586,0.0000
 7303,0.00000808,0.00004971,-0.00000992,-0.00006019,0.00001095,0.004000
 14,0.00087008,-0.00027979,-0.00668768,0.00149584,0.00602048,0.00003615
 ,0.00071413,-0.00050679,0.00044091,-0.00019541,0.00027151,-0.00018353,
 -0.00024084,0.00023256,-0.00019496,-0.00013865,-0.00013107,0.00029768,
 -0.00029592,0.00045152,-0.00006098,0.00003766,-0.00003837,0.00015050,-
 0.00017263,-0.00011636,-0.00004369,0.00008506,-0.00002973,0.00040036,-
 0.00000973,0.00007675,-0.00004080,0.00013833,-0.00025330,-0.00002469,0
 .00013086,-0.00000779,0.00011248,-0.00024005,-0.00001402,0.01863281,-0
 .01197655,-0.00172965,-0.01750637,0.00898902,-0.00290037,0.00163927,-0
 .00119624,-0.00114541,-0.00082032,0.00167185,0.00173469,0.01551483,-0.
 00195047,0.01076283,-0.00001058,-0.00022596,-0.00022919,0.00003941,-0.
 00016514,-0.00051025,-0.03759761,0.02023430,0.01996095,0.01472814,-0.0
 0461703,-0.01036834,-0.03770866,0.01201371,-0.02250441,-0.12279981,0.0
 1808871,-0.00496608,-0.00084769,-0.00206894,-0.00212662,0.00049454,0.0
 0045639,0.00044390,-0.00089856,-0.00136762,0.00268005,0.60789143,-0.00
 003663,-0.00001259,-0.00001902,-0.00014790,-0.00000842,-0.00017740,0.0
 0087310,-0.00056598,0.00085996,-0.00000644,0.00050284,-0.00003784,0.00
 007411,-0.00009812,0.00009492,-0.00014561,-0.00002001,-0.00013076,0.00
 001558,-0.00001648,0.00000587,-0.00002769,-0.00000312,-0.00002128,-0.0
 0003568,-0.00000393,-0.00002311,0.00000491,0.00002813,-0.00000465,-0.0
 0195977,-0.00047057,0.00025309,0.00323411,-0.00072619,-0.00310911,-0.0
 0001171,-0.00036539,0.00021144,-0.00021913,0.00011286,-0.00014184,0.00
 008636,0.00011064,-0.00010257,0.00009469,0.00006404,0.00005462,-0.0001
 4300,0.00013766,-0.00020245,0.00002830,-0.00001553,0.00001649,-0.00006
 876,0.00008384,0.00005520,0.00002260,-0.00003696,0.00001362,-0.0001791
 8,0.00000269,-0.00003305,0.00002513,-0.00007012,0.00011642,0.00001022,
 -0.00006398,-0.00000029,-0.00005340,0.00011178,0.00000541,-0.00938234,
 0.00506649,0.00099483,0.00764605,-0.00590583,0.00051605,-0.00071643,0.
 00035210,0.00042829,0.00134337,0.00066095,-0.00095945,-0.00225786,0.00
 828870,-0.00780578,-0.00005835,-0.00015741,0.00015378,-0.00001581,0.00
 005734,0.00022229,0.02041514,-0.01547715,-0.00549532,-0.00429254,0.010
 42725,0.00211285,0.01160608,-0.00741733,0.01404737,0.01847514,-0.09369
 565,-0.00406424,-0.00185310,-0.00362690,0.00134525,0.00007656,0.001151
 86,-0.00041192,-0.00166818,-0.00380948,-0.00103704,-0.16705112,0.35896
 000,0.00001257,0.00000729,0.00000115,0.00003087,-0.00001371,0.00003090
 ,-0.00009935,0.00013191,-0.00012242,0.00001528,-0.00011608,0.00000321,
 -0.00000435,0.00002604,-0.00001342,0.00002409,0.00000071,0.00001887,-0
 .00000568,0.00000440,0.00000464,0.00000323,0.00000202,0.00000640,0.000
 00436,0.00000013,0.00000666,-0.00000236,-0.00000415,0.00000289,0.00026
 860,0.00007372,0.00006363,-0.00041265,0.00002918,0.00013779,0.00002526
 ,0.00011378,-0.00000307,0.00005609,-0.00002963,0.00000652,-0.00002102,
 -0.00005902,0.00001879,-0.00000874,0.00000218,-0.00000178,0.00002608,-
 0.00002592,0.00004529,-0.00001047,0.00000194,-0.00000104,0.00001520,-0
 .00001810,-0.00000330,-0.00000803,0.00001717,-0.00000148,0.00004529,0.
 00000375,0.00000101,-0.00000556,0.00000549,-0.00001645,-0.00000314,0.0
 0001469,-0.00000417,0.00000774,-0.00001879,0.00000720,0.00108851,-0.00
 050499,-0.00001574,-0.00106295,-0.00027255,-0.00570041,0.00040324,-0.0
 0039915,-0.00068015,0.00095667,-0.00043427,0.00131944,0.00449606,-0.00
 493752,-0.00481280,0.00013865,-0.00001235,0.00002527,0.00006820,-0.000
 06549,-0.00012718,0.02112491,-0.00640927,0.01581511,-0.00446504,-0.000
 75364,-0.00692942,-0.02481529,0.01504888,0.00997689,-0.00355131,-0.004
 44732,-0.11494681,0.00000839,0.00029604,-0.00341258,-0.00144290,0.0005
 4377,0.00037920,0.00054017,-0.00000828,-0.00305734,0.03568617,0.113344
 10,0.94498842,-0.00002890,-0.00000515,-0.00001075,-0.00011303,-0.00000
 125,-0.00012119,0.00063055,-0.00041848,0.00059587,-0.00001540,0.000369
 86,-0.00004144,0.00005421,-0.00007352,0.00007646,-0.00011128,-0.000016
 08,-0.00009486,0.00001496,-0.00001168,0.00000023,-0.00001878,-0.000002
 88,-0.00001807,-0.00002454,-0.00000315,-0.00001853,0.00000443,0.000020
 98,-0.00000505,-0.00140661,-0.00033544,0.00004552,0.00240477,-0.000337
 87,-0.00192272,-0.00000017,-0.00025988,0.00017662,-0.00014154,0.000071
 16,-0.00010438,0.00006624,0.00009033,-0.00008082,0.00007201,0.00004581
 ,0.00004740,-0.00010483,0.00010931,-0.00015850,0.00002395,-0.00001306,
 0.00001274,-0.00005584,0.00006073,0.00003663,0.00001378,-0.00003421,0.
 00000864,-0.00014024,0.00000235,-0.00002665,0.00001458,-0.00004959,0.0
 0008286,0.00000926,-0.00004639,0.00000631,-0.00003620,0.00008519,0.000
 00233,-0.00608573,0.00363463,0.00077056,0.00504399,-0.00303505,-0.0010
 5861,-0.00056408,0.00043729,0.00054374,0.00024201,-0.00037087,-0.00082
 418,-0.00204411,0.00017654,-0.00277830,-0.00004956,0.00004016,0.000073
 24,0.00000923,0.00004636,0.00018550,-0.00044430,0.00017986,-0.00402484
 ,-0.00509465,0.00178591,0.00019132,-0.00060614,0.00380688,0.00779548,-
 0.03174537,0.01674275,-0.04954396,-0.00330661,0.00160238,-0.00082761,-
 0.00089108,0.00015920,0.00004778,0.00065216,-0.00012890,0.00004630,-0.
 22410173,0.03551441,-0.17388611,0.21958845,0.00001292,0.00000014,0.000
 00543,0.00003721,0.00000012,0.00004245,-0.00022218,0.00015198,-0.00020
 066,0.00000787,-0.00013437,0.00001448,-0.00001937,0.00002692,-0.000029
 32,0.00004030,0.00000844,0.00003415,-0.00000467,0.00000463,-0.00000048
 ,0.00000670,0.00000118,0.00000660,0.00000920,0.00000111,0.00000654,-0.
 00000195,-0.00000717,0.00000146,0.00049593,0.00014375,-0.00000318,-0.0
 0088456,0.00006586,0.00063829,-0.00000047,0.00009836,-0.00005675,0.000
 05290,-0.00003413,0.00003528,-0.00002396,-0.00003644,0.00002801,-0.000
 02788,-0.00001543,-0.00001245,0.00003727,-0.00004025,0.00005411,-0.000
 00882,0.00000452,-0.00000474,0.00002030,-0.00002173,-0.00001165,-0.000
 00422,0.00001369,-0.00000104,0.00004767,-0.00000133,0.00000612,-0.0000
 0650,0.00001853,-0.00002717,-0.00000255,0.00001825,-0.00000121,0.00001
 270,-0.00003016,-0.00000009,0.00211321,-0.00116554,-0.00020525,-0.0013
 6298,0.00129166,0.00057919,0.00019193,-0.00013392,-0.00020386,-0.00010
 441,0.00008463,0.00031395,-0.00018842,-0.00059439,0.00134340,0.0000311
 4,-0.00000147,-0.00002372,-0.00001817,-0.00001432,-0.00005514,0.002658
 20,-0.00009363,0.00017228,0.00133929,-0.00171092,0.00056547,0.00245781
 ,0.00195911,-0.00367113,0.01892084,0.01522809,0.01756289,0.00198185,-0
 .00035544,0.00093101,0.00010680,-0.00061078,0.00008133,0.00001762,0.00
 032154,0.00016066,0.03402041,-0.09845494,0.01840044,-0.05133227,0.0558
 1536,-0.00001685,-0.00000882,-0.00000600,-0.00008311,0.00000069,-0.000
 08769,0.00044633,-0.00029372,0.00045166,-0.00000006,0.00025682,-0.0000
 1477,0.00003571,-0.00005199,0.00004597,-0.00007487,-0.00000571,-0.0000
 6353,0.00001088,-0.00000901,-0.00000172,-0.00001278,-0.00000199,-0.000
 01219,-0.00001624,-0.00000213,-0.00001393,0.00000344,0.00001405,-0.000
 00444,-0.00101411,-0.00020488,0.00015905,0.00166080,-0.00041543,-0.001
 66830,-0.00001858,-0.00017563,0.00014476,-0.00011961,0.00004784,-0.000
 10258,0.00004431,0.00006037,-0.00005121,0.00004607,0.00003559,0.000036
 62,-0.00007929,0.00007458,-0.00011835,0.00001265,-0.00001022,0.0000096
 2,-0.00003626,0.00004445,0.00003355,0.00001351,-0.00001661,0.00001076,
 -0.00010126,-0.00000283,-0.00002464,0.00001142,-0.00003588,0.00006850,
 0.00000795,-0.00003062,0.00000107,-0.00002904,0.00005941,0.00000432,-0
 .00478555,0.00305828,0.00087081,0.00505667,-0.00284705,0.00058586,-0.0
 0046434,0.00030937,0.00032077,0.00022889,-0.00026076,-0.00054633,-0.00
 375695,0.00197256,-0.00111584,0.00000977,0.00003422,0.00006624,-0.0000
 5782,0.00007527,0.00016590,0.00928382,-0.00637086,-0.00782260,-0.00327
 271,0.00210954,0.00216614,0.00120184,-0.00035787,0.00500183,-0.0381549
 9,0.01196664,-0.01541436,0.00084497,0.00002477,0.00303162,-0.00028885,
 0.00024263,-0.00006634,0.00094200,-0.00022633,0.00128223,-0.18170729,0
 .02228152,-0.43977888,0.22083113,-0.00185568,0.59547991,-0.00003318,-0
 .00001015,-0.00001634,-0.00011866,0.00000339,-0.00013547,0.00062992,-0
 .00046541,0.00062221,-0.00002347,0.00041637,-0.00004441,0.00005507,-0.
 00008317,0.00007582,-0.00011540,-0.00001767,-0.00010352,0.00001330,-0.
 00001232,0.00000425,-0.00002218,-0.00000306,-0.00001801,-0.00002825,-0
 .00000263,-0.00001829,0.00000363,0.00002296,-0.00000316,-0.00138337,-0
 .00033435,-0.00010302,0.00229473,-0.00027146,-0.00158596,-0.00000788,-
 0.00031372,0.00014843,-0.00015782,0.00008943,-0.00005281,0.00007386,0.
 00011556,-0.00008505,0.00007216,0.00003912,0.00003025,-0.00010464,0.00
 011509,-0.00016363,0.00003072,-0.00001170,0.00001198,-0.00006057,0.000
 06452,0.00003101,0.00001400,-0.00004662,0.00000395,-0.00015034,0.00000
 540,-0.00001398,0.00001583,-0.00004634,0.00007501,0.00000715,-0.000052
 50,0.00000884,-0.00003575,0.00008713,-0.00000387,-0.00576838,0.0033870
 0,0.00044550,0.00494506,-0.00215991,0.00280943,-0.00063252,0.00059656,
 0.00084060,-0.00044763,-0.00046032,-0.00125889,-0.00481271,0.00181832,
 -0.00083922,-0.00009751,0.00009831,0.00003034,0.00000791,0.00005562,0.
 00020461,-0.00071803,0.00051439,-0.00868051,-0.00184811,0.00086529,0.0
 0256287,-0.00100003,0.00161320,0.00299671,-0.02933700,0.03292999,0.042
 04797,0.00055911,-0.00017759,0.00005333,-0.00018900,0.00005054,-0.0001
 7089,-0.00342990,0.00195554,0.00045001,-0.21393374,0.09088705,0.144734
 96,0.04837078,-0.01043868,-0.00654828,0.20744929,0.00002085,0.00000542
 ,0.00001200,0.00006915,-0.00000107,0.00008294,-0.00038588,0.00028090,-
 0.00038030,0.00001219,-0.00025291,0.00002331,-0.00003388,0.00005035,-0
 .00004554,0.00006988,0.00001195,0.00006310,-0.00000670,0.00000797,-0.0
 0000398,0.00001361,0.00000182,0.00001039,0.00001788,0.00000154,0.00001
 082,-0.00000229,-0.00001346,0.00000156,0.00084105,0.00021620,0.0000244
 5,-0.00142396,0.00018117,0.00106149,0.00000463,0.00019455,-0.00008547,
 0.00010324,-0.00005998,0.00003469,-0.00004534,-0.00006751,0.00004956,-
 0.00004236,-0.00002413,-0.00001581,0.00006627,-0.00006754,0.00009521,-
 0.00001761,0.00000616,-0.00000696,0.00003477,-0.00004001,-0.00002014,-
 0.00000978,0.00002625,-0.00000284,0.00008927,-0.00000375,0.00000986,-0
 .00001093,0.00002786,-0.00004753,-0.00000367,0.00003254,-0.00000303,0.
 00002271,-0.00005210,0.00000106,0.00359576,-0.00214501,-0.00022215,-0.
 00304808,0.00181715,-0.00151857,0.00035918,-0.00031253,-0.00045666,-0.
 00009413,-0.00037807,0.00083868,0.00224143,-0.00220681,0.00112144,0.00
 008713,0.00004919,-0.00004231,-0.00000489,-0.00002434,-0.00011892,0.00
 185490,0.00371152,0.00418055,0.00119029,-0.00156482,-0.00113016,-0.000
 79142,0.00090010,-0.00332355,0.03055616,0.00140749,-0.02552419,-0.0002
 7656,0.00054158,0.00011573,0.00010988,-0.00006193,0.00009627,0.0016049
 1,-0.00035789,0.00027862,0.09239782,-0.15501829,-0.12956398,-0.0084535
 5,0.02817969,-0.02944055,-0.12076226,0.12496301,0.00001339,0.00000940,
 0.00001187,0.00007158,0.00000490,0.00008681,-0.00040208,0.00026546,-0.
 00041974,-0.00000157,-0.00023899,0.00001828,-0.00003605,0.00004651,-0.
 00003769,0.00006659,0.00000692,0.00006339,-0.00000539,0.00000692,-0.00
 000638,0.00001499,0.00000083,0.00000803,0.00001813,0.00000160,0.000009
 55,-0.00000079,-0.00001418,0.00000044,0.00085553,0.00015695,-0.0000620
 7,-0.00140315,0.00041045,0.00128887,-0.00000391,0.00016858,-0.00009329
 ,0.00010460,-0.00004649,0.00004279,-0.00004163,-0.00004830,0.00004871,
 -0.00003832,-0.00002996,-0.00002120,0.00006291,-0.00006270,0.00009167,
 -0.00001533,0.00000620,-0.00000800,0.00003156,-0.00003718,-0.00002323,
 -0.00000795,0.00002001,-0.00000572,0.00008618,-0.00000596,0.00001459,-
 0.00000832,0.00002936,-0.00005247,-0.00000349,0.00002883,-0.00000113,0
 .00002438,-0.00005149,-0.00000327,0.00400928,-0.00253049,-0.00001656,-
 0.00439889,0.00236054,-0.00047386,0.00029783,-0.00023954,-0.00030352,-
 0.00000167,0.00024396,0.00042623,0.00285216,-0.00079819,0.00264774,0.0
 0002911,-0.00004442,-0.00004436,-0.00002374,-0.00001021,-0.00008757,-0
 .00209601,0.00105068,0.00388414,0.00360056,-0.00150367,-0.00027149,-0.
 00960016,0.00284792,-0.00840810,0.02988526,-0.01957203,-0.00449600,-0.
 00080852,0.00062073,0.00110630,0.00013194,-0.00005944,0.00003077,-0.00
 133484,0.00112336,0.00298288,0.15243101,-0.13338433,-0.39324336,0.0039
 5285,-0.03461507,-0.14303852,-0.17834949,0.18384696,0.53836669,-0.0004
 2011,0.00053435,0.00018273,-0.00039399,-0.00044921,-0.00011433,0.00033
 961,-0.00075386,-0.00041819,0.00003845,0.00022125,0.00016033,0.0001393
 5,0.00002179,0.00022582,-0.00009703,-0.00031782,0.00001229,-0.00038247
 ,0.00058901,-0.00131112,0.00006502,-0.00000957,-0.00007759,0.00002216,
 0.00000049,0.00000740,0.00002355,-0.00001711,0.00001044,0.01345503,0.0
 0911780,-0.00381542,-0.00072559,0.00223126,-0.00082572,0.00023389,0.00
 041238,0.00003554,-0.21624457,-0.12212075,0.06247428,-0.01568186,-0.01
 144126,0.00757617,-0.00811600,-0.00537179,0.00197001,-0.00001411,0.000
 00894,-0.00003474,-0.00001202,0.00000257,0.00001560,-0.00000937,0.0000
 0476,0.00002349,0.00000269,-0.00000048,-0.00001033,-0.00005238,0.00006
 416,-0.00001659,0.00000263,-0.00000029,-0.00000589,-0.00000622,-0.0000
 0261,0.00000190,0.00001259,0.00002494,-0.00001709,0.00004313,0.0000836
 0,-0.00020211,0.00023665,0.00008991,-0.00016072,-0.00002313,-0.0000848
 1,0.00016429,-0.00010137,-0.00002498,0.00024538,-0.00000786,-0.0001974
 8,-0.00011410,0.00001012,-0.00001002,-0.00000074,0.00000176,0.00000539
 ,-0.00001255,0.00011924,-0.00011191,-0.00003824,-0.00001034,-0.0000737
 0,-0.00003239,0.00001795,-0.00002257,0.00003055,-0.00012556,0.00009743
 ,0.00002823,-0.00000159,0.00000286,-0.00000080,0.00000540,0.00001879,-
 0.00000032,-0.00000284,0.00000205,-0.00000122,0.00022663,-0.00010228,0
 .00002435,-0.00008465,0.00003199,-0.00005333,-0.00008645,0.00005033,0.
 00004150,0.22760362,0.00013299,0.00007592,0.00009191,0.00023038,0.0000
 8801,-0.00002176,-0.00191435,0.00105232,-0.00117325,0.00002904,-0.0006
 8453,-0.00003596,-0.00009701,0.00010524,-0.00025271,0.00013453,0.00015
 468,0.00010697,0.00035510,0.00025699,0.00048202,0.00001459,0.00003165,
 0.00000009,0.00001094,-0.00000144,0.00000510,-0.00002111,-0.00001235,0
 .00001919,-0.02525179,-0.03024872,0.00619735,0.00517132,-0.00267481,0.
 00236299,-0.00128586,-0.00074920,0.00015147,-0.11410903,-0.12882165,0.
 04257103,0.00156789,0.00166474,-0.00165433,0.00769317,0.00691128,-0.00
 213960,0.00008111,-0.00005897,0.00014324,-0.00001815,0.00000492,-0.000
 01918,0.00004233,-0.00007525,-0.00005815,-0.00001175,-0.00000110,-0.00
 002003,0.00049952,-0.00036089,-0.00002262,-0.00001806,0.00002338,0.000
 01485,-0.00001906,0.00001126,-0.00001915,-0.00008885,-0.00016522,0.000
 11413,-0.00078843,0.00073968,0.00029829,0.00028130,-0.00040305,0.00023
 644,0.00017600,0.00023270,0.00044550,0.00008616,-0.00002181,-0.0003122
 3,-0.00021060,0.00011376,-0.00006091,-0.00002176,0.00000359,-0.0000554
 6,-0.00005860,0.00003772,-0.00000319,0.00013864,-0.00005838,-0.0000291
 9,-0.00009561,0.00009198,0.00001031,-0.00004960,0.00003836,0.00000411,
 -0.00012211,0.00007153,0.00010187,0.00000179,-0.00000492,-0.00000163,-
 0.00000250,-0.00001381,0.00000489,-0.00000700,0.00000034,-0.00000165,0
 .00016177,-0.00007878,0.00002658,-0.00005283,0.00001880,-0.00004404,-0
 .00006094,0.00003774,0.00003557,0.12749644,0.15266829,-0.00023680,-0.0
 0007359,0.00000956,0.00039743,0.00034201,-0.00020322,0.00068431,0.0000
 2473,0.00032533,-0.00005429,0.00017003,-0.00008072,0.00011420,-0.00002
 920,0.00015160,-0.00001865,-0.00017959,0.00004306,-0.00084009,0.000153
 20,-0.00083054,0.00001923,-0.00004390,-0.00000439,0.00002406,0.0000067
 2,0.00001376,0.00000838,-0.00001538,0.00000192,-0.00066215,0.00278434,
 0.00029811,-0.00047960,-0.00091399,-0.00073319,-0.00002772,0.00002185,
 0.00006567,0.06187494,0.04355702,-0.07012768,-0.01706522,-0.01383897,0
 .00788784,0.02258795,0.01569646,-0.00771062,-0.00006112,0.00001825,0.0
 0000804,0.00000822,0.00000908,-0.00000977,0.00001062,0.00001442,0.0000
 0769,0.00000464,0.00000120,-0.00001204,0.00000187,-0.00001961,-0.00000
 954,-0.00000068,-0.00000041,0.00000776,-0.00000487,-0.00000442,0.00000
 262,0.00000244,-0.00000233,0.00001273,0.00001921,0.00017118,0.00020408
 ,-0.00033092,0.00008302,-0.00010438,-0.00004511,-0.00017572,0.00035161
 ,-0.00005488,-0.00012458,0.00009319,-0.00002674,-0.00016337,-0.0002208
 7,0.00000993,-0.00000798,0.00000005,-0.00000710,0.00001474,0.00000393,
 0.00009524,-0.00006144,-0.00003010,0.00016007,0.00001250,-0.00001750,-
 0.00016955,0.00009304,-0.00006952,0.00006690,-0.00001086,0.00013927,0.
 00000579,-0.00000408,0.00000096,-0.00001617,-0.00001998,0.00002010,0.0
 0000136,-0.00000265,-0.00000073,-0.00005216,0.00002812,0.00001252,0.00
 001704,-0.00000495,0.00001502,0.00000672,-0.00000607,-0.00001224,-0.06
 596676,-0.04749885,0.07050063\\0.00000013,0.00000376,-0.00000171,-0.00
 000194,0.00000165,-0.00000138,0.00000560,-0.00000341,0.00000821,0.0000
 0071,0.00000911,-0.00000531,0.00000395,-0.00000113,0.00000190,-0.00000
 213,-0.00000121,-0.00000057,-0.00000089,0.00000194,-0.00000029,0.00000
 173,0.00000390,-0.00000045,-0.00000036,0.00000291,-0.00000130,0.000002
 01,0.00000227,0.00000005,-0.00001080,-0.00000366,-0.00000871,0.0000084
 9,0.00000766,0.00000225,-0.00000225,-0.00000224,0.00000078,0.00000096,
 0.00000200,-0.00000045,-0.00000300,0.00000101,-0.00000092,-0.00000250,
 -0.00000020,-0.00000108,0.00000245,0.00000213,-0.00000129,0.00000044,0
 .00000063,-0.00000015,0.00000102,0.00000136,-0.00000007,0.00000055,0.0
 0000061,-0.00000040,0.,0.00000027,-0.00000017,0.00000240,0.00000017,0.
 00000038,0.00000280,-0.00000046,0.00000075,0.00000264,0.00000038,-0.00
 000015,0.00000137,-0.00000189,0.00000242,-0.00000767,0.00000185,0.0000
 0116,0.00000419,-0.00000142,0.00000027,-0.00000153,0.00000083,0.000000
 60,0.00000114,-0.00000146,0.00000113,-0.00000081,-0.00000067,-0.000000
 15,-0.00000065,-0.00000228,0.00000053,-0.00000146,-0.00000294,-0.00000
 205,0.00000409,-0.00000384,-0.00000144,-0.00000483,-0.00000014,-0.0000
 0016,0.00000191,-0.00000237,0.00000352,-0.00000109,-0.00000197,0.00000
 115,-0.00000017,-0.00000085,0.00000018,-0.00000067,-0.00000207,0.00000
 019,-0.00000439,-0.00000358,0.00000111,-0.00000022,-0.00000344,0.00000
 234,0.00000042,-0.00000306,-0.00000092,-0.00000163,-0.00000019,0.00000
 022\\\@


 WOE UNTO THEM THAT CALL EVIL GOOD, AND GOOD EVIL      
 Job cpu time:       2 days 13 hours 10 minutes  5.6 seconds.
 Elapsed time:       0 days  2 hours 32 minutes 50.5 seconds.
 File lengths (MBytes):  RWF=   2463 Int=      0 D2E=      0 Chk=     70 Scr=      1
 Normal termination of Gaussian 16 at Sun Mar 10 11:01:03 2024.
