 Entering Gaussian System, Link 0=/s/ls4/groups/g0130/bin/g16/g16
 Input=sp1_s1_b3lyp.gjf
 Output=sp1_s1_b3lyp.log
 Initial command:
 /s/ls4/groups/g0130/bin/g16/l1.exe "/dev/shm/scratch_artd/Gau-32122.inp" -scrdir="/dev/shm/scratch_artd/"
 Entering Link 1 = /s/ls4/groups/g0130/bin/g16/l1.exe PID=     32123.
  
 Copyright (c) 1988,1990,1992,1993,1995,1998,2003,2009,2016,
            Gaussian, Inc.  All Rights Reserved.
  
 This is part of the Gaussian(R) 16 program.  It is based on
 the Gaussian(R) 09 system (copyright 2009, Gaussian, Inc.),
 the Gaussian(R) 03 system (copyright 2003, Gaussian, Inc.),
 the Gaussian(R) 98 system (copyright 1998, Gaussian, Inc.),
 the Gaussian(R) 94 system (copyright 1995, Gaussian, Inc.),
 the Gaussian 92(TM) system (copyright 1992, Gaussian, Inc.),
 the Gaussian 90(TM) system (copyright 1990, Gaussian, Inc.),
 the Gaussian 88(TM) system (copyright 1988, Gaussian, Inc.),
 the Gaussian 86(TM) system (copyright 1986, Carnegie Mellon
 University), and the Gaussian 82(TM) system (copyright 1983,
 Carnegie Mellon University). Gaussian is a federally registered
 trademark of Gaussian, Inc.
  
 This software contains proprietary and confidential information,
 including trade secrets, belonging to Gaussian, Inc.
  
 This software is provided under written license and may be
 used, copied, transmitted, or stored only in accord with that
 written license.
  
 The following legend is applicable only to US Government
 contracts under FAR:
  
                    RESTRICTED RIGHTS LEGEND
  
 Use, reproduction and disclosure by the US Government is
 subject to restrictions as set forth in subparagraphs (a)
 and (c) of the Commercial Computer Software - Restricted
 Rights clause in FAR 52.227-19.
  
 Gaussian, Inc.
 340 Quinnipiac St., Bldg. 40, Wallingford CT 06492
  
  
 ---------------------------------------------------------------
 Warning -- This program may not be used in any manner that
 competes with the business of Gaussian, Inc. or will provide
 assistance to any competitor of Gaussian, Inc.  The licensee
 of this program is prohibited from giving any competitor of
 Gaussian, Inc. access to this program.  By using this program,
 the user acknowledges that Gaussian, Inc. is engaged in the
 business of creating and licensing software in the field of
 computational chemistry and represents and warrants to the
 licensee that it is not a competitor of Gaussian, Inc. and that
 it will not use this program in any manner prohibited above.
 ---------------------------------------------------------------
  

 Cite this work as:
 Gaussian 16, Revision A.03,
 M. J. Frisch, G. W. Trucks, H. B. Schlegel, G. E. Scuseria, 
 M. A. Robb, J. R. Cheeseman, G. Scalmani, V. Barone, 
 G. A. Petersson, H. Nakatsuji, X. Li, M. Caricato, A. V. Marenich, 
 J. Bloino, B. G. Janesko, R. Gomperts, B. Mennucci, H. P. Hratchian, 
 J. V. Ortiz, A. F. Izmaylov, J. L. Sonnenberg, D. Williams-Young, 
 F. Ding, F. Lipparini, F. Egidi, J. Goings, B. Peng, A. Petrone, 
 T. Henderson, D. Ranasinghe, V. G. Zakrzewski, J. Gao, N. Rega, 
 G. Zheng, W. Liang, M. Hada, M. Ehara, K. Toyota, R. Fukuda, 
 J. Hasegawa, M. Ishida, T. Nakajima, Y. Honda, O. Kitao, H. Nakai, 
 T. Vreven, K. Throssell, J. A. Montgomery, Jr., J. E. Peralta, 
 F. Ogliaro, M. J. Bearpark, J. J. Heyd, E. N. Brothers, K. N. Kudin, 
 V. N. Staroverov, T. A. Keith, R. Kobayashi, J. Normand, 
 K. Raghavachari, A. P. Rendell, J. C. Burant, S. S. Iyengar, 
 J. Tomasi, M. Cossi, J. M. Millam, M. Klene, C. Adamo, R. Cammi, 
 J. W. Ochterski, R. L. Martin, K. Morokuma, O. Farkas, 
 J. B. Foresman, and D. J. Fox, Gaussian, Inc., Wallingford CT, 2016.
 
 ******************************************
 Gaussian 16:  ES64L-G16RevA.03 25-Dec-2016
                 7-May-2024 
 ******************************************
 %nprocshared=24
 Will use up to   24 processors via shared memory.
 %mem=20GB
 %oldchk=sp1_gs_b3lyp.chk
 %chk=sp1_s1_b3lyp.chk
 Copying data from "sp1_gs_b3lyp.chk" to current chk file "sp1_s1_b3lyp.chk"
 IOpt=  2 FromEx=T IUOpen= 4 IOptOp= 5 NList=   0 IFRang= 0 IUIn= 4 IUOut= 2.
 ----------------------------------------------------------------------
 #p CAM-B3LYP/def2TZVP EmpiricalDispersion=GD3BJ SCRF(PCM,Solvent=aceto
 ne) TD(Singlets,NStates=5, root=1) opt guess=(read) geom=(allcheck) gf
 input
 ----------------------------------------------------------------------
 1/18=20,19=15,26=3,29=7,38=1/1,3;
 2/9=110,12=2,40=1/2;
 3/5=44,7=101,11=9,14=-4,24=10,25=1,30=1,70=2201,71=1,72=19,74=-40,116=-2,124=41/1,2,3,8;
 4/5=1/1;
 5/5=2,38=6,53=19/2;
 8/6=1,10=1,107=1,108=5/1;
 9/8=1,15=2,41=5,42=1,48=1,70=2/14;
 10/5=4,28=1/2;
 6/7=2,8=2,9=2,10=2/1;
 7/12=6,13=5,14=1/1,2,3,16;
 1/18=20,19=15,26=3/3(2);
 2/9=110/2;
 99//99;
 2/9=110/2;
 3/5=44,7=101,11=9,14=-2,25=1,30=1,70=2205,71=1,72=19,74=-40,124=41/1,2,3,8;
 4/5=5,16=3,69=1/1;
 5/5=2,38=5,53=19/2;
 8/6=1,10=1,107=1,108=5/1;
 9/8=1,15=2,41=5,42=1,48=1,49=4,70=2/14;
 10/5=4,28=1/2;
 7/12=6,13=5,14=1/1,2,3,16;
 1/18=20,19=15,26=3/3(-8);
 2/9=110/2;
 6/7=2,8=2,9=2,10=2/1;
 99//99;
 Leave Link    1 at Tue May  7 19:13:44 2024, MaxMem=  2684354560 cpu:              22.5 elap:               1.0
 (Enter /s/ls4/groups/g0130/bin/g16/l101.exe)
 Structure from the checkpoint file:  "sp1_s1_b3lyp.chk"
 -----
 TITLE
 -----
 Charge =  0 Multiplicity = 1
 Redundant internal coordinates found in file.  (old form).
 C,0,-5.7756274772,1.7541562882,-1.467782373
 C,0,-5.0294836795,1.0552593658,-0.5212709834
 C,0,-3.9207689907,1.6799349566,0.0173307896
 C,0,-3.5516356093,2.9640507486,-0.3779875293
 C,0,-4.2921637654,3.6437205026,-1.3135691106
 C,0,-5.4176620748,3.0301976655,-1.865355017
 H,0,-5.3122561232,0.0537393822,-0.2290068508
 H,0,-6.0072722341,3.5511565357,-2.6073045079
 H,0,-6.6460756303,1.281951256,-1.9043188053
 H,0,-4.0083403949,4.6412581887,-1.6250946784
 N,0,-3.0353550707,1.2013014893,0.980420432
 C,0,-1.8337543124,1.9853597829,0.9173106884
 C,0,-2.3388881112,3.3842677719,0.4196339747
 C,0,-2.9542282943,-0.209340434,1.2774354892
 H,0,-2.2336995237,-0.3672050208,2.0769799996
 H,0,-2.6483638933,-0.8002605664,0.4084060892
 C,0,-2.797682882,4.2431421053,1.6036399513
 H,0,-3.5180133578,3.7135929751,2.2264544672
 H,0,-3.2769990073,5.1445569386,1.2239988344
 H,0,-1.9530850812,4.5437575458,2.2237940565
 C,0,-1.2846487974,4.1364783319,-0.3772073547
 H,0,-1.0033001037,3.6038045429,-1.2821680657
 H,0,-0.389966052,4.3015872744,0.2254579926
 H,0,-1.6710944118,5.1143000247,-0.6637103396
 O,0,-1.024112842,1.4024647179,-0.1554122591
 C,0,0.3011547147,1.2627835319,-0.0821831711
 C,0,-1.0869013058,2.0064057385,2.2096523095
 C,0,0.217566666,1.7915411614,2.2957803169
 C,0,0.9958335452,1.4590345229,1.1168122208
 H,0,-1.6758697178,2.2302807653,3.0866953055
 H,0,0.7252035149,1.8420923328,3.2500916724
 C,0,2.3665800463,1.2903458105,1.1320275125
 C,0,0.9707590086,0.8853011402,-1.2412499147
 C,0,2.3367257945,0.7229116217,-1.2191559263
 C,0,3.0221635411,0.9317005055,-0.0317221042
 H,0,2.924378322,1.4317032037,2.0455431993
 H,0,0.4046902501,0.7330803651,-2.14887315
 H,0,2.8762613827,0.4408710588,-2.1095604907
 N,0,4.4628607825,0.7641262421,-0.0071823121
 O,0,5.0492816959,0.9524162625,1.0434797591
 O,0,5.0249923229,0.4423973905,-1.0383536246
 H,0,-3.9222828978,-0.5690758901,1.6217096021
 Recover connectivity data from disk.
 ITRead=  0  0  0  0  0  0  0  0  0  0  0  0  0  0  0  0  0  0  0  0
 ITRead=  0  0  0  0  0  0  0  0  0  0  0  0  0  0  0  0  0  0  0  0
 ITRead=  0  0
 MicOpt= -1 -1 -1 -1 -1 -1 -1 -1 -1 -1 -1 -1 -1 -1 -1 -1 -1 -1 -1 -1
 MicOpt= -1 -1 -1 -1 -1 -1 -1 -1 -1 -1 -1 -1 -1 -1 -1 -1 -1 -1 -1 -1
 MicOpt= -1 -1
 NAtoms=     42 NQM=       42 NQMF=       0 NMMI=      0 NMMIF=      0
                NMic=       0 NMicF=      0.
                    Isotopes and Nuclear Properties:
 (Nuclear quadrupole moments (NQMom) in fm**2, nuclear magnetic moments (NMagM)
  in nuclear magnetons)

  Atom         1           2           3           4           5           6           7           8           9          10
 IAtWgt=          12          12          12          12          12          12           1           1           1           1
 AtmWgt=  12.0000000  12.0000000  12.0000000  12.0000000  12.0000000  12.0000000   1.0078250   1.0078250   1.0078250   1.0078250
 NucSpn=           0           0           0           0           0           0           1           1           1           1
 AtZEff=   3.6000000   3.6000000   3.6000000   3.6000000   3.6000000   3.6000000   1.0000000   1.0000000   1.0000000   1.0000000
 NQMom=    0.0000000   0.0000000   0.0000000   0.0000000   0.0000000   0.0000000   0.0000000   0.0000000   0.0000000   0.0000000
 NMagM=    0.0000000   0.0000000   0.0000000   0.0000000   0.0000000   0.0000000   2.7928460   2.7928460   2.7928460   2.7928460
 AtZNuc=   6.0000000   6.0000000   6.0000000   6.0000000   6.0000000   6.0000000   1.0000000   1.0000000   1.0000000   1.0000000

  Atom        11          12          13          14          15          16          17          18          19          20
 IAtWgt=          14          12          12          12           1           1          12           1           1           1
 AtmWgt=  14.0030740  12.0000000  12.0000000  12.0000000   1.0078250   1.0078250  12.0000000   1.0078250   1.0078250   1.0078250
 NucSpn=           2           0           0           0           1           1           0           1           1           1
 AtZEff=   4.5500000   3.6000000   3.6000000   3.6000000   1.0000000   1.0000000   3.6000000   1.0000000   1.0000000   1.0000000
 NQMom=    2.0440000   0.0000000   0.0000000   0.0000000   0.0000000   0.0000000   0.0000000   0.0000000   0.0000000   0.0000000
 NMagM=    0.4037610   0.0000000   0.0000000   0.0000000   2.7928460   2.7928460   0.0000000   2.7928460   2.7928460   2.7928460
 AtZNuc=   7.0000000   6.0000000   6.0000000   6.0000000   1.0000000   1.0000000   6.0000000   1.0000000   1.0000000   1.0000000

  Atom        21          22          23          24          25          26          27          28          29          30
 IAtWgt=          12           1           1           1          16          12          12          12          12           1
 AtmWgt=  12.0000000   1.0078250   1.0078250   1.0078250  15.9949146  12.0000000  12.0000000  12.0000000  12.0000000   1.0078250
 NucSpn=           0           1           1           1           0           0           0           0           0           1
 AtZEff=   3.6000000   1.0000000   1.0000000   1.0000000   5.6000000   3.6000000   3.6000000   3.6000000   3.6000000   1.0000000
 NQMom=    0.0000000   0.0000000   0.0000000   0.0000000   0.0000000   0.0000000   0.0000000   0.0000000   0.0000000   0.0000000
 NMagM=    0.0000000   2.7928460   2.7928460   2.7928460   0.0000000   0.0000000   0.0000000   0.0000000   0.0000000   2.7928460
 AtZNuc=   6.0000000   1.0000000   1.0000000   1.0000000   8.0000000   6.0000000   6.0000000   6.0000000   6.0000000   1.0000000

  Atom        31          32          33          34          35          36          37          38          39          40
 IAtWgt=           1          12          12          12          12           1           1           1          14          16
 AtmWgt=   1.0078250  12.0000000  12.0000000  12.0000000  12.0000000   1.0078250   1.0078250   1.0078250  14.0030740  15.9949146
 NucSpn=           1           0           0           0           0           1           1           1           2           0
 AtZEff=   1.0000000   3.6000000   3.6000000   3.6000000   3.6000000   1.0000000   1.0000000   1.0000000   4.5500000   5.6000000
 NQMom=    0.0000000   0.0000000   0.0000000   0.0000000   0.0000000   0.0000000   0.0000000   0.0000000   2.0440000   0.0000000
 NMagM=    2.7928460   0.0000000   0.0000000   0.0000000   0.0000000   2.7928460   2.7928460   2.7928460   0.4037610   0.0000000
 AtZNuc=   1.0000000   6.0000000   6.0000000   6.0000000   6.0000000   1.0000000   1.0000000   1.0000000   7.0000000   8.0000000

  Atom        41          42
 IAtWgt=          16           1
 AtmWgt=  15.9949146   1.0078250
 NucSpn=           0           1
 AtZEff=   5.6000000   1.0000000
 NQMom=    0.0000000   0.0000000
 NMagM=    0.0000000   2.7928460
 AtZNuc=   8.0000000   1.0000000
 Leave Link  101 at Tue May  7 19:13:46 2024, MaxMem=  2684354560 cpu:               8.8 elap:               0.6
 (Enter /s/ls4/groups/g0130/bin/g16/l103.exe)

 GradGradGradGradGradGradGradGradGradGradGradGradGradGradGradGradGradGrad
 Berny optimization.
 Initialization pass.
                           ----------------------------
                           !    Initial Parameters    !
                           ! (Angstroms and Degrees)  !
 --------------------------                            --------------------------
 ! Name  Definition              Value          Derivative Info.                !
 --------------------------------------------------------------------------------
 ! R1    R(1,2)                  1.3932         estimate D2E/DX2                !
 ! R2    R(1,6)                  1.3836         estimate D2E/DX2                !
 ! R3    R(1,9)                  1.0822         estimate D2E/DX2                !
 ! R4    R(2,3)                  1.3819         estimate D2E/DX2                !
 ! R5    R(2,7)                  1.0809         estimate D2E/DX2                !
 ! R6    R(3,4)                  1.3934         estimate D2E/DX2                !
 ! R7    R(3,11)                 1.3931         estimate D2E/DX2                !
 ! R8    R(4,5)                  1.3732         estimate D2E/DX2                !
 ! R9    R(4,13)                 1.5111         estimate D2E/DX2                !
 ! R10   R(5,6)                  1.3956         estimate D2E/DX2                !
 ! R11   R(5,10)                 1.0829         estimate D2E/DX2                !
 ! R12   R(6,8)                  1.0814         estimate D2E/DX2                !
 ! R13   R(11,12)                1.4362         estimate D2E/DX2                !
 ! R14   R(11,14)                1.4439         estimate D2E/DX2                !
 ! R15   R(12,13)                1.5684         estimate D2E/DX2                !
 ! R16   R(12,25)                1.4649         estimate D2E/DX2                !
 ! R17   R(12,27)                1.4928         estimate D2E/DX2                !
 ! R18   R(13,17)                1.533          estimate D2E/DX2                !
 ! R19   R(13,21)                1.5206         estimate D2E/DX2                !
 ! R20   R(14,15)                1.0878         estimate D2E/DX2                !
 ! R21   R(14,16)                1.0945         estimate D2E/DX2                !
 ! R22   R(14,42)                1.0886         estimate D2E/DX2                !
 ! R23   R(17,18)                1.0896         estimate D2E/DX2                !
 ! R24   R(17,19)                1.0892         estimate D2E/DX2                !
 ! R25   R(17,20)                1.0901         estimate D2E/DX2                !
 ! R26   R(21,22)                1.0871         estimate D2E/DX2                !
 ! R27   R(21,23)                1.0913         estimate D2E/DX2                !
 ! R28   R(21,24)                1.0898         estimate D2E/DX2                !
 ! R29   R(25,26)                1.3346         estimate D2E/DX2                !
 ! R30   R(26,29)                1.3995         estimate D2E/DX2                !
 ! R31   R(26,33)                1.3908         estimate D2E/DX2                !
 ! R32   R(27,28)                1.3248         estimate D2E/DX2                !
 ! R33   R(27,30)                1.0799         estimate D2E/DX2                !
 ! R34   R(28,29)                1.4513         estimate D2E/DX2                !
 ! R35   R(28,31)                1.0821         estimate D2E/DX2                !
 ! R36   R(29,32)                1.3812         estimate D2E/DX2                !
 ! R37   R(32,35)                1.383          estimate D2E/DX2                !
 ! R38   R(32,36)                1.0796         estimate D2E/DX2                !
 ! R39   R(33,34)                1.3758         estimate D2E/DX2                !
 ! R40   R(33,37)                1.0805         estimate D2E/DX2                !
 ! R41   R(34,35)                1.3869         estimate D2E/DX2                !
 ! R42   R(34,38)                1.0786         estimate D2E/DX2                !
 ! R43   R(35,39)                1.4506         estimate D2E/DX2                !
 ! R44   R(39,40)                1.2179         estimate D2E/DX2                !
 ! R45   R(39,41)                1.2177         estimate D2E/DX2                !
 ! A1    A(2,1,6)              121.284          estimate D2E/DX2                !
 ! A2    A(2,1,9)              119.0719         estimate D2E/DX2                !
 ! A3    A(6,1,9)              119.6417         estimate D2E/DX2                !
 ! A4    A(1,2,3)              117.8861         estimate D2E/DX2                !
 ! A5    A(1,2,7)              120.5555         estimate D2E/DX2                !
 ! A6    A(3,2,7)              121.5569         estimate D2E/DX2                !
 ! A7    A(2,3,4)              121.2369         estimate D2E/DX2                !
 ! A8    A(2,3,11)             128.6163         estimate D2E/DX2                !
 ! A9    A(4,3,11)             110.1457         estimate D2E/DX2                !
 ! A10   A(3,4,5)              120.4364         estimate D2E/DX2                !
 ! A11   A(3,4,13)             108.6105         estimate D2E/DX2                !
 ! A12   A(5,4,13)             130.9025         estimate D2E/DX2                !
 ! A13   A(4,5,6)              119.1241         estimate D2E/DX2                !
 ! A14   A(4,5,10)             120.7036         estimate D2E/DX2                !
 ! A15   A(6,5,10)             120.1719         estimate D2E/DX2                !
 ! A16   A(1,6,5)              120.031          estimate D2E/DX2                !
 ! A17   A(1,6,8)              120.0227         estimate D2E/DX2                !
 ! A18   A(5,6,8)              119.9458         estimate D2E/DX2                !
 ! A19   A(3,11,12)            108.29           estimate D2E/DX2                !
 ! A20   A(3,11,14)            120.9049         estimate D2E/DX2                !
 ! A21   A(12,11,14)           119.6968         estimate D2E/DX2                !
 ! A22   A(11,12,13)           103.3808         estimate D2E/DX2                !
 ! A23   A(11,12,25)           106.1029         estimate D2E/DX2                !
 ! A24   A(11,12,27)           112.8457         estimate D2E/DX2                !
 ! A25   A(13,12,25)           107.4905         estimate D2E/DX2                !
 ! A26   A(13,12,27)           115.0417         estimate D2E/DX2                !
 ! A27   A(25,12,27)           111.2873         estimate D2E/DX2                !
 ! A28   A(4,13,12)            100.2496         estimate D2E/DX2                !
 ! A29   A(4,13,17)            108.8616         estimate D2E/DX2                !
 ! A30   A(4,13,21)            114.6686         estimate D2E/DX2                !
 ! A31   A(12,13,17)           110.5506         estimate D2E/DX2                !
 ! A32   A(12,13,21)           112.5954         estimate D2E/DX2                !
 ! A33   A(17,13,21)           109.5776         estimate D2E/DX2                !
 ! A34   A(11,14,15)           109.2806         estimate D2E/DX2                !
 ! A35   A(11,14,16)           112.3242         estimate D2E/DX2                !
 ! A36   A(11,14,42)           109.7517         estimate D2E/DX2                !
 ! A37   A(15,14,16)           108.6709         estimate D2E/DX2                !
 ! A38   A(15,14,42)           107.9755         estimate D2E/DX2                !
 ! A39   A(16,14,42)           108.7353         estimate D2E/DX2                !
 ! A40   A(13,17,18)           111.5336         estimate D2E/DX2                !
 ! A41   A(13,17,19)           109.0359         estimate D2E/DX2                !
 ! A42   A(13,17,20)           111.224          estimate D2E/DX2                !
 ! A43   A(18,17,19)           108.0904         estimate D2E/DX2                !
 ! A44   A(18,17,20)           108.727          estimate D2E/DX2                !
 ! A45   A(19,17,20)           108.1203         estimate D2E/DX2                !
 ! A46   A(13,21,22)           111.9171         estimate D2E/DX2                !
 ! A47   A(13,21,23)           110.7228         estimate D2E/DX2                !
 ! A48   A(13,21,24)           109.6203         estimate D2E/DX2                !
 ! A49   A(22,21,23)           108.7638         estimate D2E/DX2                !
 ! A50   A(22,21,24)           108.2147         estimate D2E/DX2                !
 ! A51   A(23,21,24)           107.4673         estimate D2E/DX2                !
 ! A52   A(12,25,26)           123.3859         estimate D2E/DX2                !
 ! A53   A(25,26,29)           121.683          estimate D2E/DX2                !
 ! A54   A(25,26,33)           117.4363         estimate D2E/DX2                !
 ! A55   A(29,26,33)           120.8675         estimate D2E/DX2                !
 ! A56   A(12,27,28)           123.1347         estimate D2E/DX2                !
 ! A57   A(12,27,30)           115.6681         estimate D2E/DX2                !
 ! A58   A(28,27,30)           121.1862         estimate D2E/DX2                !
 ! A59   A(27,28,29)           120.821          estimate D2E/DX2                !
 ! A60   A(27,28,31)           120.7743         estimate D2E/DX2                !
 ! A61   A(29,28,31)           118.3955         estimate D2E/DX2                !
 ! A62   A(26,29,28)           117.5102         estimate D2E/DX2                !
 ! A63   A(26,29,32)           119.0079         estimate D2E/DX2                !
 ! A64   A(28,29,32)           123.4526         estimate D2E/DX2                !
 ! A65   A(29,32,35)           119.5281         estimate D2E/DX2                !
 ! A66   A(29,32,36)           120.4031         estimate D2E/DX2                !
 ! A67   A(35,32,36)           120.0681         estimate D2E/DX2                !
 ! A68   A(26,33,34)           119.7806         estimate D2E/DX2                !
 ! A69   A(26,33,37)           119.0827         estimate D2E/DX2                !
 ! A70   A(34,33,37)           121.1344         estimate D2E/DX2                !
 ! A71   A(33,34,35)           119.1235         estimate D2E/DX2                !
 ! A72   A(33,34,38)           120.947          estimate D2E/DX2                !
 ! A73   A(35,34,38)           119.9291         estimate D2E/DX2                !
 ! A74   A(32,35,34)           121.6827         estimate D2E/DX2                !
 ! A75   A(32,35,39)           119.1111         estimate D2E/DX2                !
 ! A76   A(34,35,39)           119.2056         estimate D2E/DX2                !
 ! A77   A(35,39,40)           118.3561         estimate D2E/DX2                !
 ! A78   A(35,39,41)           118.3378         estimate D2E/DX2                !
 ! A79   A(40,39,41)           123.3061         estimate D2E/DX2                !
 ! D1    D(6,1,2,3)              0.3842         estimate D2E/DX2                !
 ! D2    D(6,1,2,7)           -179.1748         estimate D2E/DX2                !
 ! D3    D(9,1,2,3)            179.8157         estimate D2E/DX2                !
 ! D4    D(9,1,2,7)              0.2567         estimate D2E/DX2                !
 ! D5    D(2,1,6,5)             -0.1914         estimate D2E/DX2                !
 ! D6    D(2,1,6,8)            179.5285         estimate D2E/DX2                !
 ! D7    D(9,1,6,5)           -179.6197         estimate D2E/DX2                !
 ! D8    D(9,1,6,8)              0.1002         estimate D2E/DX2                !
 ! D9    D(1,2,3,4)             -0.4599         estimate D2E/DX2                !
 ! D10   D(1,2,3,11)           179.1205         estimate D2E/DX2                !
 ! D11   D(7,2,3,4)            179.0944         estimate D2E/DX2                !
 ! D12   D(7,2,3,11)            -1.3252         estimate D2E/DX2                !
 ! D13   D(2,3,4,5)              0.3467         estimate D2E/DX2                !
 ! D14   D(2,3,4,13)           178.0278         estimate D2E/DX2                !
 ! D15   D(11,3,4,5)          -179.3041         estimate D2E/DX2                !
 ! D16   D(11,3,4,13)           -1.623          estimate D2E/DX2                !
 ! D17   D(2,3,11,12)          161.8835         estimate D2E/DX2                !
 ! D18   D(2,3,11,14)           18.1803         estimate D2E/DX2                !
 ! D19   D(4,3,11,12)          -18.4987         estimate D2E/DX2                !
 ! D20   D(4,3,11,14)         -162.2018         estimate D2E/DX2                !
 ! D21   D(3,4,5,6)             -0.1387         estimate D2E/DX2                !
 ! D22   D(3,4,5,10)          -179.9033         estimate D2E/DX2                !
 ! D23   D(13,4,5,6)          -177.2307         estimate D2E/DX2                !
 ! D24   D(13,4,5,10)            3.0047         estimate D2E/DX2                !
 ! D25   D(3,4,13,12)           18.6725         estimate D2E/DX2                !
 ! D26   D(3,4,13,17)          -97.3512         estimate D2E/DX2                !
 ! D27   D(3,4,13,21)          139.5173         estimate D2E/DX2                !
 ! D28   D(5,4,13,12)         -163.9729         estimate D2E/DX2                !
 ! D29   D(5,4,13,17)           80.0034         estimate D2E/DX2                !
 ! D30   D(5,4,13,21)          -43.1281         estimate D2E/DX2                !
 ! D31   D(4,5,6,1)              0.0635         estimate D2E/DX2                !
 ! D32   D(4,5,6,8)           -179.6566         estimate D2E/DX2                !
 ! D33   D(10,5,6,1)           179.8293         estimate D2E/DX2                !
 ! D34   D(10,5,6,8)             0.1092         estimate D2E/DX2                !
 ! D35   D(3,11,12,13)          29.5973         estimate D2E/DX2                !
 ! D36   D(3,11,12,25)         -83.3711         estimate D2E/DX2                !
 ! D37   D(3,11,12,27)         154.5112         estimate D2E/DX2                !
 ! D38   D(14,11,12,13)        173.8142         estimate D2E/DX2                !
 ! D39   D(14,11,12,25)         60.8457         estimate D2E/DX2                !
 ! D40   D(14,11,12,27)        -61.272          estimate D2E/DX2                !
 ! D41   D(3,11,14,15)        -177.9967         estimate D2E/DX2                !
 ! D42   D(3,11,14,16)          61.3211         estimate D2E/DX2                !
 ! D43   D(3,11,14,42)         -59.7679         estimate D2E/DX2                !
 ! D44   D(12,11,14,15)         42.3225         estimate D2E/DX2                !
 ! D45   D(12,11,14,16)        -78.3596         estimate D2E/DX2                !
 ! D46   D(12,11,14,42)        160.5514         estimate D2E/DX2                !
 ! D47   D(11,12,13,4)         -28.5071         estimate D2E/DX2                !
 ! D48   D(11,12,13,17)         86.2418         estimate D2E/DX2                !
 ! D49   D(11,12,13,21)       -150.8274         estimate D2E/DX2                !
 ! D50   D(25,12,13,4)          83.4482         estimate D2E/DX2                !
 ! D51   D(25,12,13,17)       -161.8029         estimate D2E/DX2                !
 ! D52   D(25,12,13,21)        -38.8721         estimate D2E/DX2                !
 ! D53   D(27,12,13,4)        -151.9858         estimate D2E/DX2                !
 ! D54   D(27,12,13,17)        -37.2369         estimate D2E/DX2                !
 ! D55   D(27,12,13,21)         85.6939         estimate D2E/DX2                !
 ! D56   D(11,12,25,26)       -140.4573         estimate D2E/DX2                !
 ! D57   D(13,12,25,26)        109.4512         estimate D2E/DX2                !
 ! D58   D(27,12,25,26)        -17.3521         estimate D2E/DX2                !
 ! D59   D(11,12,27,28)        132.3825         estimate D2E/DX2                !
 ! D60   D(11,12,27,30)        -48.8113         estimate D2E/DX2                !
 ! D61   D(13,12,27,28)       -109.323          estimate D2E/DX2                !
 ! D62   D(13,12,27,30)         69.4833         estimate D2E/DX2                !
 ! D63   D(25,12,27,28)         13.2282         estimate D2E/DX2                !
 ! D64   D(25,12,27,30)       -167.9655         estimate D2E/DX2                !
 ! D65   D(4,13,17,18)          56.748          estimate D2E/DX2                !
 ! D66   D(4,13,17,19)         -62.5447         estimate D2E/DX2                !
 ! D67   D(4,13,17,20)         178.3157         estimate D2E/DX2                !
 ! D68   D(12,13,17,18)        -52.4532         estimate D2E/DX2                !
 ! D69   D(12,13,17,19)       -171.7459         estimate D2E/DX2                !
 ! D70   D(12,13,17,20)         69.1145         estimate D2E/DX2                !
 ! D71   D(21,13,17,18)       -177.1225         estimate D2E/DX2                !
 ! D72   D(21,13,17,19)         63.5848         estimate D2E/DX2                !
 ! D73   D(21,13,17,20)        -55.5548         estimate D2E/DX2                !
 ! D74   D(4,13,21,22)         -51.5945         estimate D2E/DX2                !
 ! D75   D(4,13,21,23)        -173.1233         estimate D2E/DX2                !
 ! D76   D(4,13,21,24)          68.4801         estimate D2E/DX2                !
 ! D77   D(12,13,21,22)         62.1853         estimate D2E/DX2                !
 ! D78   D(12,13,21,23)        -59.3435         estimate D2E/DX2                !
 ! D79   D(12,13,21,24)       -177.7401         estimate D2E/DX2                !
 ! D80   D(17,13,21,22)       -174.3408         estimate D2E/DX2                !
 ! D81   D(17,13,21,23)         64.1304         estimate D2E/DX2                !
 ! D82   D(17,13,21,24)        -54.2662         estimate D2E/DX2                !
 ! D83   D(12,25,26,29)         10.8579         estimate D2E/DX2                !
 ! D84   D(12,25,26,33)       -170.4541         estimate D2E/DX2                !
 ! D85   D(25,26,29,28)          1.4318         estimate D2E/DX2                !
 ! D86   D(25,26,29,32)        179.5336         estimate D2E/DX2                !
 ! D87   D(33,26,29,28)       -177.2116         estimate D2E/DX2                !
 ! D88   D(33,26,29,32)          0.8902         estimate D2E/DX2                !
 ! D89   D(25,26,33,34)       -179.7821         estimate D2E/DX2                !
 ! D90   D(25,26,33,37)          0.7581         estimate D2E/DX2                !
 ! D91   D(29,26,33,34)         -1.0827         estimate D2E/DX2                !
 ! D92   D(29,26,33,37)        179.4574         estimate D2E/DX2                !
 ! D93   D(12,27,28,29)         -2.7792         estimate D2E/DX2                !
 ! D94   D(12,27,28,31)        178.3436         estimate D2E/DX2                !
 ! D95   D(30,27,28,29)        178.4784         estimate D2E/DX2                !
 ! D96   D(30,27,28,31)         -0.3988         estimate D2E/DX2                !
 ! D97   D(27,28,29,26)         -5.3551         estimate D2E/DX2                !
 ! D98   D(27,28,29,32)        176.6347         estimate D2E/DX2                !
 ! D99   D(31,28,29,26)        173.5483         estimate D2E/DX2                !
 ! D100  D(31,28,29,32)         -4.4619         estimate D2E/DX2                !
 ! D101  D(26,29,32,35)         -0.0468         estimate D2E/DX2                !
 ! D102  D(26,29,32,36)       -179.7277         estimate D2E/DX2                !
 ! D103  D(28,29,32,35)        177.9353         estimate D2E/DX2                !
 ! D104  D(28,29,32,36)         -1.7456         estimate D2E/DX2                !
 ! D105  D(29,32,35,34)         -0.6135         estimate D2E/DX2                !
 ! D106  D(29,32,35,39)        179.6641         estimate D2E/DX2                !
 ! D107  D(36,32,35,34)        179.0684         estimate D2E/DX2                !
 ! D108  D(36,32,35,39)         -0.6539         estimate D2E/DX2                !
 ! D109  D(26,33,34,35)          0.4207         estimate D2E/DX2                !
 ! D110  D(26,33,34,38)       -179.3422         estimate D2E/DX2                !
 ! D111  D(37,33,34,35)        179.8692         estimate D2E/DX2                !
 ! D112  D(37,33,34,38)          0.1063         estimate D2E/DX2                !
 ! D113  D(33,34,35,32)          0.4259         estimate D2E/DX2                !
 ! D114  D(33,34,35,39)       -179.8519         estimate D2E/DX2                !
 ! D115  D(38,34,35,32)       -179.8087         estimate D2E/DX2                !
 ! D116  D(38,34,35,39)         -0.0865         estimate D2E/DX2                !
 ! D117  D(32,35,39,40)         -0.329          estimate D2E/DX2                !
 ! D118  D(32,35,39,41)        179.6799         estimate D2E/DX2                !
 ! D119  D(34,35,39,40)        179.9416         estimate D2E/DX2                !
 ! D120  D(34,35,39,41)         -0.0495         estimate D2E/DX2                !
 --------------------------------------------------------------------------------
 Trust Radius=3.00D-01 FncErr=1.00D-07 GrdErr=1.00D-06 EigMax=2.50D+02 EigMin=1.00D-04
 Number of steps in this run=    252 maximum allowed number of steps=    252.
 GradGradGradGradGradGradGradGradGradGradGradGradGradGradGradGradGradGrad

 Leave Link  103 at Tue May  7 19:13:47 2024, MaxMem=  2684354560 cpu:               3.3 elap:               0.7
 (Enter /s/ls4/groups/g0130/bin/g16/l202.exe)
                          Input orientation:                          
 ---------------------------------------------------------------------
 Center     Atomic      Atomic             Coordinates (Angstroms)
 Number     Number       Type             X           Y           Z
 ---------------------------------------------------------------------
      1          6           0       -5.775627    1.754156   -1.467782
      2          6           0       -5.029484    1.055259   -0.521271
      3          6           0       -3.920769    1.679935    0.017331
      4          6           0       -3.551636    2.964051   -0.377988
      5          6           0       -4.292164    3.643721   -1.313569
      6          6           0       -5.417662    3.030198   -1.865355
      7          1           0       -5.312256    0.053739   -0.229007
      8          1           0       -6.007272    3.551157   -2.607305
      9          1           0       -6.646076    1.281951   -1.904319
     10          1           0       -4.008340    4.641258   -1.625095
     11          7           0       -3.035355    1.201301    0.980420
     12          6           0       -1.833754    1.985360    0.917311
     13          6           0       -2.338888    3.384268    0.419634
     14          6           0       -2.954228   -0.209340    1.277435
     15          1           0       -2.233700   -0.367205    2.076980
     16          1           0       -2.648364   -0.800261    0.408406
     17          6           0       -2.797683    4.243142    1.603640
     18          1           0       -3.518013    3.713593    2.226454
     19          1           0       -3.276999    5.144557    1.223999
     20          1           0       -1.953085    4.543758    2.223794
     21          6           0       -1.284649    4.136478   -0.377207
     22          1           0       -1.003300    3.603805   -1.282168
     23          1           0       -0.389966    4.301587    0.225458
     24          1           0       -1.671094    5.114300   -0.663710
     25          8           0       -1.024113    1.402465   -0.155412
     26          6           0        0.301155    1.262784   -0.082183
     27          6           0       -1.086901    2.006406    2.209652
     28          6           0        0.217567    1.791541    2.295780
     29          6           0        0.995834    1.459035    1.116812
     30          1           0       -1.675870    2.230281    3.086695
     31          1           0        0.725204    1.842092    3.250092
     32          6           0        2.366580    1.290346    1.132028
     33          6           0        0.970759    0.885301   -1.241250
     34          6           0        2.336726    0.722912   -1.219156
     35          6           0        3.022164    0.931701   -0.031722
     36          1           0        2.924378    1.431703    2.045543
     37          1           0        0.404690    0.733080   -2.148873
     38          1           0        2.876261    0.440871   -2.109560
     39          7           0        4.462861    0.764126   -0.007182
     40          8           0        5.049282    0.952416    1.043480
     41          8           0        5.024992    0.442397   -1.038354
     42          1           0       -3.922283   -0.569076    1.621710
 ---------------------------------------------------------------------
                    Distance matrix (angstroms):
                    1          2          3          4          5
     1  C    0.000000
     2  C    1.393223   0.000000
     3  C    2.377303   1.381868   0.000000
     4  C    2.756381   2.418274   1.393373   0.000000
     5  C    2.407260   2.805621   2.401184   1.373188   0.000000
     6  C    1.383649   2.420253   2.758334   2.387193   1.395573
     7  H    2.154227   1.080935   2.154398   3.404687   3.886493
     8  H    2.140416   3.396632   3.839750   3.368189   2.150329
     9  H    1.082230   2.139528   3.358337   3.838581   3.386420
    10  H    3.388718   3.888515   3.387428   2.139364   1.082906
    11  N    3.715971   2.500591   1.393050   2.284536   3.578738
    12  C    4.613078   3.625919   2.293224   2.363631   3.710898
    13  C    4.246267   3.680881   2.359861   1.511138   2.624232
    14  C    4.399072   3.023449   2.468081   3.628737   4.832127
    15  H    5.441578   4.073171   3.358443   4.342935   5.640977
    16  H    4.452517   3.158637   2.814840   3.950235   5.041453
    17  C    4.949428   4.433822   3.216789   2.476160   3.332100
    18  H    4.752220   4.111116   3.029555   2.710362   3.624356
    19  H    4.998364   4.779071   3.724794   2.719631   3.118064
    20  H    6.001787   5.400855   4.116034   3.438038   4.335239
    21  C    5.199394   4.851644   3.624830   2.552218   3.188217
    22  H    5.121597   4.825371   3.728484   2.778640   3.289256
    23  H    6.193692   5.711512   4.402607   3.485585   4.246003
    24  H    5.365099   5.270188   4.161696   2.870826   3.074886
    25  O    4.941952   4.037004   2.915038   2.979339   4.128524
    26  C    6.252089   5.352716   4.243649   4.222062   5.318247
    27  C    5.964169   4.889435   3.597730   3.699713   5.036625
    28  C    7.077018   6.000785   4.725422   4.767672   6.065941
    29  C    7.253958   6.257060   5.042880   5.017866   6.216311
    30  H    6.146379   5.064072   3.842324   4.007611   5.310851
    31  H    8.032862   6.925223   5.662340   5.719537   7.017609
    32  C    8.559771   7.582244   6.397272   6.332986   7.473833
    33  C    6.805877   6.045673   5.112975   5.051581   5.942429
    34  C    8.181415   7.406655   6.449886   6.356341   7.244461
    35  C    8.952085   8.067462   6.983307   6.889498   7.905540
    36  H    9.388159   8.366252   7.143620   7.082397   8.261667
    37  H    6.301016   5.681825   4.929358   4.875016   5.588380
    38  H    8.774496   8.087085   7.229009   7.119174   7.891652
    39  N   10.389425   9.510712   8.433537   8.319214   9.308553
    40  O   11.141269  10.200026   9.057818   8.946677  10.003070
    41  O   10.888458  10.086400   9.092448   8.964004   9.855639
    42  H    4.286870   2.908045   2.762623   4.076659   5.147847
                    6          7          8          9         10
     6  C    0.000000
     7  H    3.398242   0.000000
     8  H    1.081447   4.286172   0.000000
     9  H    2.137027   2.468653   2.459990   0.000000
    10  H    2.153933   4.969365   2.479675   4.280252   0.000000
    11  N    4.137473   2.822037   5.217843   4.622286   4.423654
    12  C    4.656105   4.140673   5.682683   5.622705   4.271586
    13  C    3.850375   4.511549   4.758913   5.326571   2.923698
    14  C    5.142008   2.810494   6.209156   5.096788   5.750143
    15  H    6.100981   3.869403   7.178853   6.167619   6.476064
    16  H    5.245132   2.869135   6.269897   5.066162   5.966137
    17  C    4.513253   5.218502   5.339697   5.990372   3.471155
    18  H    4.562740   4.758479   5.439487   5.723718   3.991919
    19  H    4.312431   5.671853   4.967112   6.004729   2.984209
    20  H    5.569138   6.120500   6.384450   7.050167   4.364347
    21  C    4.529927   5.736928   5.255388   6.263010   3.038177
    22  H    4.489513   5.681480   5.176726   6.133432   3.197527
    23  H    5.591570   6.517644   6.335757   7.265883   4.078303
    24  H    4.452438   6.249504   5.002341   6.401285   2.571137
    25  O    4.987654   4.495848   5.954874   5.888944   4.642775
    26  C    6.245664   5.744017   7.170017   7.182239   5.689149
    27  C    6.034014   5.254863   7.056867   6.953705   5.493864
    28  C    7.113728   6.322456   8.116964   8.062884   6.430586
    29  C    7.245330   6.601369   8.203018   8.219329   6.533480
    30  H    6.258089   5.380940   7.275122   7.107214   5.783960
    31  H    8.081719   7.193973   9.086045   9.012073   7.349096
    32  C    8.520904   7.895957   9.445384   9.510385   7.711676
    33  C    6.767718   6.418131   7.593801   7.655923   6.248678
    34  C    8.116137   7.741777   8.918981   9.026223   7.468473
    35  C    8.888001   8.382857   9.748122   9.854143   8.107258
    36  H    9.350933   8.655317  10.291523  10.354585   8.475696
    37  H    6.265534   6.068844   7.018901   7.076324   5.918026
    38  H    8.692147   8.410599   9.425433   9.561613   8.079338
    39  N   10.305951   9.803406  11.142345  11.281655   9.455741
    40  O   11.060534  10.477992  11.930174  12.065633  10.137522
    41  O   10.790258  10.376165  11.568788  11.733225   9.978767
    42  H    5.229775   2.396889   6.261634   4.824751   6.139766
                   11         12         13         14         15
    11  N    0.000000
    12  C    1.436167   0.000000
    13  C    2.359002   1.568370   0.000000
    14  C    1.443853   2.490354   3.745462   0.000000
    15  H    2.074923   2.653177   4.102610   1.087821   0.000000
    16  H    2.117360   2.946566   4.195972   1.094510   1.773026
    17  C    3.114111   2.549076   1.532980   4.467160   4.668772
    18  H    2.845552   2.745428   2.182520   4.075279   4.280738
    19  H    3.958154   3.486766   2.150738   5.363884   5.674114
    20  H    3.726835   2.875159   2.179049   4.948719   4.921164
    21  C    3.677416   2.569943   1.520591   4.940797   5.216023
    22  H    3.875639   2.854247   2.174424   4.989766   5.344780
    23  H    4.144855   2.815687   2.162747   5.294390   5.350244
    24  H    4.458243   3.509466   2.147695   5.809959   6.154251
    25  O    2.318551   1.464930   2.446805   2.894186   3.094900
    26  C    3.502171   2.465551   3.423791   3.822726   3.707335
    27  C    2.440425   1.492776   2.582661   3.043923   2.639465
    28  C    3.558097   2.479045   3.548544   3.885979   3.273647
    29  C    4.041721   2.885028   3.913176   4.290951   3.832357
    30  H    2.709869   2.188868   2.980687   3.295356   2.842117
    31  H    4.438899   3.465640   4.447297   4.651663   3.874570
    32  C    5.404796   4.262858   5.199370   5.530027   4.980259
    33  C    4.591800   3.706050   4.467341   4.790359   4.779956
    34  C    5.824624   4.852955   5.624039   5.924209   5.739482
    35  C    6.147410   5.058735   5.912671   6.223594   5.810153
    36  H    6.058547   4.921308   5.844490   6.151506   5.462859
    37  H    4.673930   3.997539   4.599266   4.889794   5.101918
    38  H    6.713676   5.807895   6.500630   6.774151   6.655209
    39  N    7.575600   6.480236   7.301445   7.590197   7.104053
    40  O    8.088713   6.961255   7.803085   8.090772   7.473375
    41  O    8.343895   7.297106   8.062696   8.334003   7.940363
    42  H    2.081377   3.373910   4.425048   1.088606   1.760493
                   16         17         18         19         20
    16  H    0.000000
    17  C    5.185247   0.000000
    18  H    4.943325   1.089585   0.000000
    19  H    6.033343   1.089229   1.763707   0.000000
    20  H    5.686614   1.090095   1.771491   1.764454   0.000000
    21  C    5.181534   2.494876   3.456270   2.747643   2.716227
    22  H    4.996005   3.457810   4.318133   3.718131   3.751983
    23  H    5.582355   2.774870   3.759575   3.169013   2.548595
    24  H    6.089870   2.677498   3.704881   2.478566   2.956809
    25  O    2.794294   3.782759   4.151402   4.580559   4.048621
    26  C    3.632697   4.618152   5.091397   5.438516   4.600426
    27  C    3.682394   2.880454   2.970703   3.951713   2.681162
    28  C    4.300369   3.947295   4.201624   4.960183   3.505939
    29  C    4.345852   4.730647   5.166155   5.643728   4.408747
    30  H    4.159707   2.740352   2.516689   3.811333   2.484677
    31  H    5.141805   4.570183   4.749235   5.570364   3.940243
    32  C    5.481234   5.967498   6.457425   6.834719   5.516897
    33  C    4.319784   5.793932   6.338240   6.500935   5.825779
    34  C    5.460781   6.835375   7.422559   7.552076   6.697406
    35  C    5.945442   6.892798   7.457359   7.681435   6.548848
    36  H    6.222326   6.390732   6.836970   7.274428   5.788463
    37  H    4.267546   6.054509   6.588972   6.662749   6.261037
    38  H    6.196939   7.774237   8.390380   8.432075   7.676863
    39  N    7.293116   8.210590   8.796752   8.978274   7.773495
    40  O    7.920160   8.527456   9.078660   9.323818   7.957639
    41  O    7.906814   9.089557   9.713014   9.805692   8.726759
    42  H    1.774379   4.941912   4.344008   5.763694   5.511924
                   21         22         23         24         25
    21  C    0.000000
    22  H    1.087130   0.000000
    23  H    1.091295   1.770880   0.000000
    24  H    1.089752   1.763529   1.758526   0.000000
    25  O    2.755341   2.473036   2.992009   3.801930   0.000000
    26  C    3.295441   2.936315   3.131552   4.366019   1.334619
    27  C    3.356807   3.840766   3.112974   4.272763   2.441765
    28  C    3.860084   4.192437   3.309934   4.833875   2.775156
    29  C    3.821178   3.788361   3.285584   4.862482   2.387873
    30  H    3.973067   4.628810   3.759061   4.731082   3.409007
    31  H    4.739305   5.160691   4.054766   5.636261   3.853678
    32  C    4.869264   4.747265   4.181864   5.843810   3.628618
    33  C    4.050134   3.359888   3.959017   5.019698   2.329381
    34  C    5.047343   4.411268   4.725323   5.971217   3.590067
    35  C    5.379460   4.990803   4.802594   6.318245   4.075447
    36  H    5.558906   5.587338   4.746980   6.482279   4.520580
    37  H    4.192348   3.312804   4.359262   5.070471   2.542330
    38  H    5.828528   5.073433   5.570070   6.679062   4.467245
    39  N    6.674095   6.290332   6.009799   7.548539   5.525968
    40  O    7.230164   7.005158   6.439839   8.086979   6.206932
    41  O    7.341316   6.811332   6.768481   8.173409   6.188133
    42  H    5.752827   5.862243   6.176580   6.526236   3.929952
                   26         27         28         29         30
    26  C    0.000000
    27  C    2.780680   0.000000
    28  C    2.437475   1.324848   0.000000
    29  C    1.399530   2.414891   1.451284   0.000000
    30  H    3.858298   1.079911   2.098366   3.407823   0.000000
    31  H    3.408735   2.096005   1.082109   2.184229   2.437733
    32  C    2.396049   3.687892   2.494750   1.381171   4.587549
    33  C    1.390791   4.171279   3.728157   2.426985   5.248307
    34  C    2.393265   5.012515   4.241177   2.792242   6.075643
    35  C    2.741542   4.802412   3.744644   2.388143   5.786394
    36  H    3.381872   4.055561   2.742067   2.140695   4.783723
    37  H    2.136004   4.779430   4.572778   3.397228   5.829367
    38  H    3.378901   6.067385   5.319774   3.870678   7.136173
    39  N    4.192145   6.103890   4.937787   3.710329   7.028919
    40  O    4.889597   6.334319   5.061409   4.085643   7.143902
    41  O    4.888961   7.095837   6.003997   4.681069   8.069331
    42  H    4.908807   3.875329   4.813028   5.343784   3.876719
                   31         32         33         34         35
    31  H    0.000000
    32  C    2.735825   0.000000
    33  C    4.598684   2.782952   0.000000
    34  C    4.880957   2.418871   1.375763   0.000000
    35  C    4.107936   1.383015   2.381884   1.386873   0.000000
    36  H    2.540812   1.079644   3.862408   3.392047   2.138830
    37  H    5.521001   3.863142   1.080456   2.144117   3.372380
    38  H    5.942755   3.389583   2.140659   1.078641   2.140003
    39  N    5.073650   2.443174   3.705723   2.447658   1.450618
    40  O    4.935414   2.705351   4.675344   3.539795   2.294710
    41  O    6.232022   3.535071   4.083398   2.708903   2.294351
    42  H    5.483110   6.576248   5.852658   6.993922   7.294621
                   36         37         38         39         40
    36  H    0.000000
    37  H    4.942674   0.000000
    38  H    4.271879   2.489095   0.000000
    39  N    2.650711   4.588742   2.653636   0.000000
    40  O    2.397720   5.640164   3.863335   1.217881   0.000000
    41  O    3.860275   4.760771   2.400944   1.217709   2.143534
    42  H    7.145595   5.885202   7.820650   8.645308   9.118018
                   41         42
    41  O    0.000000
    42  H    9.388970   0.000000
 Stoichiometry    C19H18N2O3
 Framework group  C1[X(C19H18N2O3)]
 Deg. of freedom   120
 Full point group                 C1      NOp   1
 RotChk:  IX=2 Diff= 3.32D-15
 Largest Abelian subgroup         C1      NOp   1
 Largest concise Abelian subgroup C1      NOp   1
                         Standard orientation:                         
 ---------------------------------------------------------------------
 Center     Atomic      Atomic             Coordinates (Angstroms)
 Number     Number       Type             X           Y           Z
 ---------------------------------------------------------------------
      1          6           0        4.970438   -1.538666   -0.596848
      2          6           0        4.048310   -0.826629   -1.360885
      3          6           0        3.047883   -0.143825   -0.695689
      4          6           0        2.954873   -0.171886    0.694293
      5          6           0        3.867169   -0.878760    1.438397
      6          6           0        4.886971   -1.571049    0.783902
      7          1           0        4.116813   -0.820209   -2.439628
      8          1           0        5.609318   -2.136589    1.356534
      9          1           0        5.760178   -2.082855   -1.098238
     10          1           0        3.798058   -0.904799    2.518781
     11          7           0        2.030209    0.644012   -1.228832
     12          6           0        1.005996    0.791846   -0.232987
     13          6           0        1.797718    0.702783    1.117950
     14          6           0        1.663996    0.539738   -2.621572
     15          1           0        0.878960    1.259966   -2.841449
     16          1           0        1.305098   -0.460580   -2.883311
     17          6           0        2.338155    2.080776    1.516813
     18          1           0        2.904956    2.537989    0.706327
     19          1           0        3.002647    1.967727    2.372436
     20          1           0        1.529826    2.754274    1.801962
     21          6           0        0.956804    0.137559    2.251786
     22          1           0        0.635217   -0.881063    2.049692
     23          1           0        0.074680    0.756532    2.423985
     24          1           0        1.539137    0.134507    3.172893
     25          8           0        0.167511   -0.405328   -0.331660
     26          6           0       -1.162064   -0.382136   -0.218082
     27          6           0        0.199016    2.034923   -0.411656
     28          6           0       -1.125282    2.049904   -0.376540
     29          6           0       -1.878852    0.819903   -0.216992
     30          1           0        0.764940    2.943517   -0.554467
     31          1           0       -1.671541    2.977783   -0.484259
     32          6           0       -3.254952    0.779034   -0.106041
     33          6           0       -1.818948   -1.604709   -0.127981
     34          6           0       -3.189588   -1.637197   -0.013902
     35          6           0       -3.894225   -0.442751    0.000265
     36          1           0       -3.830573    1.692430   -0.107204
     37          1           0       -1.237652   -2.515384   -0.140292
     38          1           0       -3.717331   -2.574360    0.067824
     39          7           0       -5.339223   -0.474806    0.123737
     40          8           0       -5.942362    0.583171    0.135606
     41          8           0       -5.888031   -1.558367    0.210468
     42          1           0        2.522916    0.777702   -3.246626
 ---------------------------------------------------------------------
 Rotational constants (GHZ):           0.6249607           0.1270642           0.1242317
 Leave Link  202 at Tue May  7 19:13:48 2024, MaxMem=  2684354560 cpu:               2.8 elap:               0.2
 (Enter /s/ls4/groups/g0130/bin/g16/l301.exe)
 Standard basis: def2TZVP (5D, 7F)
 Ernie: Thresh=  0.10000D-02 Tol=  0.10000D-05 Strict=F.
 AO basis set in the form of general basis input (Overlap normalization):
      1 0
 S   6 1.00       0.000000000000
      0.1357534968D+05  0.6064550360D-03
      0.2035233368D+04  0.4697908888D-02
      0.4632256236D+03  0.2433247765D-01
      0.1312001960D+03  0.9739996831D-01
      0.4285301589D+02  0.3019558425D+00
      0.1558418577D+02  0.6623360914D+00
 S   2 1.00       0.000000000000
      0.6206713851D+01  0.6559530854D+00
      0.2576489653D+01  0.3758563329D+00
 S   1 1.00       0.000000000000
      0.5769633942D+00  0.1000000000D+01
 S   1 1.00       0.000000000000
      0.2297283136D+00  0.1000000000D+01
 S   1 1.00       0.000000000000
      0.9516444003D-01  0.1000000000D+01
 P   4 1.00       0.000000000000
      0.3469723224D+02  0.1132722000D-01
      0.7958262283D+01  0.7616965920D-01
      0.2378082688D+01  0.3019225220D+00
      0.8143320818D+00  0.7278502735D+00
 P   1 1.00       0.000000000000
      0.2888754725D+00  0.1000000000D+01
 P   1 1.00       0.000000000000
      0.1005682367D+00  0.1000000000D+01
 D   1 1.00       0.000000000000
      0.1097000000D+01  0.1000000000D+01
 D   1 1.00       0.000000000000
      0.3180000000D+00  0.1000000000D+01
 F   1 1.00       0.000000000000
      0.7610000000D+00  0.1000000000D+01
 ****
      2 0
 S   6 1.00       0.000000000000
      0.1357534968D+05  0.6064550360D-03
      0.2035233368D+04  0.4697908888D-02
      0.4632256236D+03  0.2433247765D-01
      0.1312001960D+03  0.9739996831D-01
      0.4285301589D+02  0.3019558425D+00
      0.1558418577D+02  0.6623360914D+00
 S   2 1.00       0.000000000000
      0.6206713851D+01  0.6559530854D+00
      0.2576489653D+01  0.3758563329D+00
 S   1 1.00       0.000000000000
      0.5769633942D+00  0.1000000000D+01
 S   1 1.00       0.000000000000
      0.2297283136D+00  0.1000000000D+01
 S   1 1.00       0.000000000000
      0.9516444003D-01  0.1000000000D+01
 P   4 1.00       0.000000000000
      0.3469723224D+02  0.1132722000D-01
      0.7958262283D+01  0.7616965920D-01
      0.2378082688D+01  0.3019225220D+00
      0.8143320818D+00  0.7278502735D+00
 P   1 1.00       0.000000000000
      0.2888754725D+00  0.1000000000D+01
 P   1 1.00       0.000000000000
      0.1005682367D+00  0.1000000000D+01
 D   1 1.00       0.000000000000
      0.1097000000D+01  0.1000000000D+01
 D   1 1.00       0.000000000000
      0.3180000000D+00  0.1000000000D+01
 F   1 1.00       0.000000000000
      0.7610000000D+00  0.1000000000D+01
 ****
      3 0
 S   6 1.00       0.000000000000
      0.1357534968D+05  0.6064550360D-03
      0.2035233368D+04  0.4697908888D-02
      0.4632256236D+03  0.2433247765D-01
      0.1312001960D+03  0.9739996831D-01
      0.4285301589D+02  0.3019558425D+00
      0.1558418577D+02  0.6623360914D+00
 S   2 1.00       0.000000000000
      0.6206713851D+01  0.6559530854D+00
      0.2576489653D+01  0.3758563329D+00
 S   1 1.00       0.000000000000
      0.5769633942D+00  0.1000000000D+01
 S   1 1.00       0.000000000000
      0.2297283136D+00  0.1000000000D+01
 S   1 1.00       0.000000000000
      0.9516444003D-01  0.1000000000D+01
 P   4 1.00       0.000000000000
      0.3469723224D+02  0.1132722000D-01
      0.7958262283D+01  0.7616965920D-01
      0.2378082688D+01  0.3019225220D+00
      0.8143320818D+00  0.7278502735D+00
 P   1 1.00       0.000000000000
      0.2888754725D+00  0.1000000000D+01
 P   1 1.00       0.000000000000
      0.1005682367D+00  0.1000000000D+01
 D   1 1.00       0.000000000000
      0.1097000000D+01  0.1000000000D+01
 D   1 1.00       0.000000000000
      0.3180000000D+00  0.1000000000D+01
 F   1 1.00       0.000000000000
      0.7610000000D+00  0.1000000000D+01
 ****
      4 0
 S   6 1.00       0.000000000000
      0.1357534968D+05  0.6064550360D-03
      0.2035233368D+04  0.4697908888D-02
      0.4632256236D+03  0.2433247765D-01
      0.1312001960D+03  0.9739996831D-01
      0.4285301589D+02  0.3019558425D+00
      0.1558418577D+02  0.6623360914D+00
 S   2 1.00       0.000000000000
      0.6206713851D+01  0.6559530854D+00
      0.2576489653D+01  0.3758563329D+00
 S   1 1.00       0.000000000000
      0.5769633942D+00  0.1000000000D+01
 S   1 1.00       0.000000000000
      0.2297283136D+00  0.1000000000D+01
 S   1 1.00       0.000000000000
      0.9516444003D-01  0.1000000000D+01
 P   4 1.00       0.000000000000
      0.3469723224D+02  0.1132722000D-01
      0.7958262283D+01  0.7616965920D-01
      0.2378082688D+01  0.3019225220D+00
      0.8143320818D+00  0.7278502735D+00
 P   1 1.00       0.000000000000
      0.2888754725D+00  0.1000000000D+01
 P   1 1.00       0.000000000000
      0.1005682367D+00  0.1000000000D+01
 D   1 1.00       0.000000000000
      0.1097000000D+01  0.1000000000D+01
 D   1 1.00       0.000000000000
      0.3180000000D+00  0.1000000000D+01
 F   1 1.00       0.000000000000
      0.7610000000D+00  0.1000000000D+01
 ****
      5 0
 S   6 1.00       0.000000000000
      0.1357534968D+05  0.6064550360D-03
      0.2035233368D+04  0.4697908888D-02
      0.4632256236D+03  0.2433247765D-01
      0.1312001960D+03  0.9739996831D-01
      0.4285301589D+02  0.3019558425D+00
      0.1558418577D+02  0.6623360914D+00
 S   2 1.00       0.000000000000
      0.6206713851D+01  0.6559530854D+00
      0.2576489653D+01  0.3758563329D+00
 S   1 1.00       0.000000000000
      0.5769633942D+00  0.1000000000D+01
 S   1 1.00       0.000000000000
      0.2297283136D+00  0.1000000000D+01
 S   1 1.00       0.000000000000
      0.9516444003D-01  0.1000000000D+01
 P   4 1.00       0.000000000000
      0.3469723224D+02  0.1132722000D-01
      0.7958262283D+01  0.7616965920D-01
      0.2378082688D+01  0.3019225220D+00
      0.8143320818D+00  0.7278502735D+00
 P   1 1.00       0.000000000000
      0.2888754725D+00  0.1000000000D+01
 P   1 1.00       0.000000000000
      0.1005682367D+00  0.1000000000D+01
 D   1 1.00       0.000000000000
      0.1097000000D+01  0.1000000000D+01
 D   1 1.00       0.000000000000
      0.3180000000D+00  0.1000000000D+01
 F   1 1.00       0.000000000000
      0.7610000000D+00  0.1000000000D+01
 ****
      6 0
 S   6 1.00       0.000000000000
      0.1357534968D+05  0.6064550360D-03
      0.2035233368D+04  0.4697908888D-02
      0.4632256236D+03  0.2433247765D-01
      0.1312001960D+03  0.9739996831D-01
      0.4285301589D+02  0.3019558425D+00
      0.1558418577D+02  0.6623360914D+00
 S   2 1.00       0.000000000000
      0.6206713851D+01  0.6559530854D+00
      0.2576489653D+01  0.3758563329D+00
 S   1 1.00       0.000000000000
      0.5769633942D+00  0.1000000000D+01
 S   1 1.00       0.000000000000
      0.2297283136D+00  0.1000000000D+01
 S   1 1.00       0.000000000000
      0.9516444003D-01  0.1000000000D+01
 P   4 1.00       0.000000000000
      0.3469723224D+02  0.1132722000D-01
      0.7958262283D+01  0.7616965920D-01
      0.2378082688D+01  0.3019225220D+00
      0.8143320818D+00  0.7278502735D+00
 P   1 1.00       0.000000000000
      0.2888754725D+00  0.1000000000D+01
 P   1 1.00       0.000000000000
      0.1005682367D+00  0.1000000000D+01
 D   1 1.00       0.000000000000
      0.1097000000D+01  0.1000000000D+01
 D   1 1.00       0.000000000000
      0.3180000000D+00  0.1000000000D+01
 F   1 1.00       0.000000000000
      0.7610000000D+00  0.1000000000D+01
 ****
      7 0
 S   3 1.00       0.000000000000
      0.3406134100D+02  0.2543930721D-01
      0.5123574600D+01  0.1900859489D+00
      0.1164662600D+01  0.8524411301D+00
 S   1 1.00       0.000000000000
      0.3272304100D+00  0.1000000000D+01
 S   1 1.00       0.000000000000
      0.1030724100D+00  0.1000000000D+01
 P   1 1.00       0.000000000000
      0.8000000000D+00  0.1000000000D+01
 ****
      8 0
 S   3 1.00       0.000000000000
      0.3406134100D+02  0.2543930721D-01
      0.5123574600D+01  0.1900859489D+00
      0.1164662600D+01  0.8524411301D+00
 S   1 1.00       0.000000000000
      0.3272304100D+00  0.1000000000D+01
 S   1 1.00       0.000000000000
      0.1030724100D+00  0.1000000000D+01
 P   1 1.00       0.000000000000
      0.8000000000D+00  0.1000000000D+01
 ****
      9 0
 S   3 1.00       0.000000000000
      0.3406134100D+02  0.2543930721D-01
      0.5123574600D+01  0.1900859489D+00
      0.1164662600D+01  0.8524411301D+00
 S   1 1.00       0.000000000000
      0.3272304100D+00  0.1000000000D+01
 S   1 1.00       0.000000000000
      0.1030724100D+00  0.1000000000D+01
 P   1 1.00       0.000000000000
      0.8000000000D+00  0.1000000000D+01
 ****
     10 0
 S   3 1.00       0.000000000000
      0.3406134100D+02  0.2543930721D-01
      0.5123574600D+01  0.1900859489D+00
      0.1164662600D+01  0.8524411301D+00
 S   1 1.00       0.000000000000
      0.3272304100D+00  0.1000000000D+01
 S   1 1.00       0.000000000000
      0.1030724100D+00  0.1000000000D+01
 P   1 1.00       0.000000000000
      0.8000000000D+00  0.1000000000D+01
 ****
     11 0
 S   6 1.00       0.000000000000
      0.1973080065D+05  0.5862640263D-03
      0.2957895874D+04  0.4542882059D-02
      0.6732213360D+03  0.2355841345D-01
      0.1906824949D+03  0.9470919329D-01
      0.6229544190D+02  0.2971978491D+00
      0.2265416118D+02  0.6691624690D+00
 S   2 1.00       0.000000000000
      0.8979147743D+01  0.6459668363D+00
      0.3686300237D+01  0.3870057439D+00
 S   1 1.00       0.000000000000
      0.8466007680D+00  0.1000000000D+01
 S   1 1.00       0.000000000000
      0.3364713377D+00  0.1000000000D+01
 S   1 1.00       0.000000000000
      0.1364765367D+00  0.1000000000D+01
 P   4 1.00       0.000000000000
      0.4920038051D+02  0.1144882510D-01
      0.1134679054D+02  0.7842233797D-01
      0.3427397241D+01  0.3081809474D+00
      0.1178552513D+01  0.7202719637D+00
 P   1 1.00       0.000000000000
      0.4164220497D+00  0.1000000000D+01
 P   1 1.00       0.000000000000
      0.1426082601D+00  0.1000000000D+01
 D   1 1.00       0.000000000000
      0.1654000000D+01  0.1000000000D+01
 D   1 1.00       0.000000000000
      0.4690000000D+00  0.1000000000D+01
 F   1 1.00       0.000000000000
      0.1093000000D+01  0.1000000000D+01
 ****
     12 0
 S   6 1.00       0.000000000000
      0.1357534968D+05  0.6064550360D-03
      0.2035233368D+04  0.4697908888D-02
      0.4632256236D+03  0.2433247765D-01
      0.1312001960D+03  0.9739996831D-01
      0.4285301589D+02  0.3019558425D+00
      0.1558418577D+02  0.6623360914D+00
 S   2 1.00       0.000000000000
      0.6206713851D+01  0.6559530854D+00
      0.2576489653D+01  0.3758563329D+00
 S   1 1.00       0.000000000000
      0.5769633942D+00  0.1000000000D+01
 S   1 1.00       0.000000000000
      0.2297283136D+00  0.1000000000D+01
 S   1 1.00       0.000000000000
      0.9516444003D-01  0.1000000000D+01
 P   4 1.00       0.000000000000
      0.3469723224D+02  0.1132722000D-01
      0.7958262283D+01  0.7616965920D-01
      0.2378082688D+01  0.3019225220D+00
      0.8143320818D+00  0.7278502735D+00
 P   1 1.00       0.000000000000
      0.2888754725D+00  0.1000000000D+01
 P   1 1.00       0.000000000000
      0.1005682367D+00  0.1000000000D+01
 D   1 1.00       0.000000000000
      0.1097000000D+01  0.1000000000D+01
 D   1 1.00       0.000000000000
      0.3180000000D+00  0.1000000000D+01
 F   1 1.00       0.000000000000
      0.7610000000D+00  0.1000000000D+01
 ****
     13 0
 S   6 1.00       0.000000000000
      0.1357534968D+05  0.6064550360D-03
      0.2035233368D+04  0.4697908888D-02
      0.4632256236D+03  0.2433247765D-01
      0.1312001960D+03  0.9739996831D-01
      0.4285301589D+02  0.3019558425D+00
      0.1558418577D+02  0.6623360914D+00
 S   2 1.00       0.000000000000
      0.6206713851D+01  0.6559530854D+00
      0.2576489653D+01  0.3758563329D+00
 S   1 1.00       0.000000000000
      0.5769633942D+00  0.1000000000D+01
 S   1 1.00       0.000000000000
      0.2297283136D+00  0.1000000000D+01
 S   1 1.00       0.000000000000
      0.9516444003D-01  0.1000000000D+01
 P   4 1.00       0.000000000000
      0.3469723224D+02  0.1132722000D-01
      0.7958262283D+01  0.7616965920D-01
      0.2378082688D+01  0.3019225220D+00
      0.8143320818D+00  0.7278502735D+00
 P   1 1.00       0.000000000000
      0.2888754725D+00  0.1000000000D+01
 P   1 1.00       0.000000000000
      0.1005682367D+00  0.1000000000D+01
 D   1 1.00       0.000000000000
      0.1097000000D+01  0.1000000000D+01
 D   1 1.00       0.000000000000
      0.3180000000D+00  0.1000000000D+01
 F   1 1.00       0.000000000000
      0.7610000000D+00  0.1000000000D+01
 ****
     14 0
 S   6 1.00       0.000000000000
      0.1357534968D+05  0.6064550360D-03
      0.2035233368D+04  0.4697908888D-02
      0.4632256236D+03  0.2433247765D-01
      0.1312001960D+03  0.9739996831D-01
      0.4285301589D+02  0.3019558425D+00
      0.1558418577D+02  0.6623360914D+00
 S   2 1.00       0.000000000000
      0.6206713851D+01  0.6559530854D+00
      0.2576489653D+01  0.3758563329D+00
 S   1 1.00       0.000000000000
      0.5769633942D+00  0.1000000000D+01
 S   1 1.00       0.000000000000
      0.2297283136D+00  0.1000000000D+01
 S   1 1.00       0.000000000000
      0.9516444003D-01  0.1000000000D+01
 P   4 1.00       0.000000000000
      0.3469723224D+02  0.1132722000D-01
      0.7958262283D+01  0.7616965920D-01
      0.2378082688D+01  0.3019225220D+00
      0.8143320818D+00  0.7278502735D+00
 P   1 1.00       0.000000000000
      0.2888754725D+00  0.1000000000D+01
 P   1 1.00       0.000000000000
      0.1005682367D+00  0.1000000000D+01
 D   1 1.00       0.000000000000
      0.1097000000D+01  0.1000000000D+01
 D   1 1.00       0.000000000000
      0.3180000000D+00  0.1000000000D+01
 F   1 1.00       0.000000000000
      0.7610000000D+00  0.1000000000D+01
 ****
     15 0
 S   3 1.00       0.000000000000
      0.3406134100D+02  0.2543930721D-01
      0.5123574600D+01  0.1900859489D+00
      0.1164662600D+01  0.8524411301D+00
 S   1 1.00       0.000000000000
      0.3272304100D+00  0.1000000000D+01
 S   1 1.00       0.000000000000
      0.1030724100D+00  0.1000000000D+01
 P   1 1.00       0.000000000000
      0.8000000000D+00  0.1000000000D+01
 ****
     16 0
 S   3 1.00       0.000000000000
      0.3406134100D+02  0.2543930721D-01
      0.5123574600D+01  0.1900859489D+00
      0.1164662600D+01  0.8524411301D+00
 S   1 1.00       0.000000000000
      0.3272304100D+00  0.1000000000D+01
 S   1 1.00       0.000000000000
      0.1030724100D+00  0.1000000000D+01
 P   1 1.00       0.000000000000
      0.8000000000D+00  0.1000000000D+01
 ****
     17 0
 S   6 1.00       0.000000000000
      0.1357534968D+05  0.6064550360D-03
      0.2035233368D+04  0.4697908888D-02
      0.4632256236D+03  0.2433247765D-01
      0.1312001960D+03  0.9739996831D-01
      0.4285301589D+02  0.3019558425D+00
      0.1558418577D+02  0.6623360914D+00
 S   2 1.00       0.000000000000
      0.6206713851D+01  0.6559530854D+00
      0.2576489653D+01  0.3758563329D+00
 S   1 1.00       0.000000000000
      0.5769633942D+00  0.1000000000D+01
 S   1 1.00       0.000000000000
      0.2297283136D+00  0.1000000000D+01
 S   1 1.00       0.000000000000
      0.9516444003D-01  0.1000000000D+01
 P   4 1.00       0.000000000000
      0.3469723224D+02  0.1132722000D-01
      0.7958262283D+01  0.7616965920D-01
      0.2378082688D+01  0.3019225220D+00
      0.8143320818D+00  0.7278502735D+00
 P   1 1.00       0.000000000000
      0.2888754725D+00  0.1000000000D+01
 P   1 1.00       0.000000000000
      0.1005682367D+00  0.1000000000D+01
 D   1 1.00       0.000000000000
      0.1097000000D+01  0.1000000000D+01
 D   1 1.00       0.000000000000
      0.3180000000D+00  0.1000000000D+01
 F   1 1.00       0.000000000000
      0.7610000000D+00  0.1000000000D+01
 ****
     18 0
 S   3 1.00       0.000000000000
      0.3406134100D+02  0.2543930721D-01
      0.5123574600D+01  0.1900859489D+00
      0.1164662600D+01  0.8524411301D+00
 S   1 1.00       0.000000000000
      0.3272304100D+00  0.1000000000D+01
 S   1 1.00       0.000000000000
      0.1030724100D+00  0.1000000000D+01
 P   1 1.00       0.000000000000
      0.8000000000D+00  0.1000000000D+01
 ****
     19 0
 S   3 1.00       0.000000000000
      0.3406134100D+02  0.2543930721D-01
      0.5123574600D+01  0.1900859489D+00
      0.1164662600D+01  0.8524411301D+00
 S   1 1.00       0.000000000000
      0.3272304100D+00  0.1000000000D+01
 S   1 1.00       0.000000000000
      0.1030724100D+00  0.1000000000D+01
 P   1 1.00       0.000000000000
      0.8000000000D+00  0.1000000000D+01
 ****
     20 0
 S   3 1.00       0.000000000000
      0.3406134100D+02  0.2543930721D-01
      0.5123574600D+01  0.1900859489D+00
      0.1164662600D+01  0.8524411301D+00
 S   1 1.00       0.000000000000
      0.3272304100D+00  0.1000000000D+01
 S   1 1.00       0.000000000000
      0.1030724100D+00  0.1000000000D+01
 P   1 1.00       0.000000000000
      0.8000000000D+00  0.1000000000D+01
 ****
     21 0
 S   6 1.00       0.000000000000
      0.1357534968D+05  0.6064550360D-03
      0.2035233368D+04  0.4697908888D-02
      0.4632256236D+03  0.2433247765D-01
      0.1312001960D+03  0.9739996831D-01
      0.4285301589D+02  0.3019558425D+00
      0.1558418577D+02  0.6623360914D+00
 S   2 1.00       0.000000000000
      0.6206713851D+01  0.6559530854D+00
      0.2576489653D+01  0.3758563329D+00
 S   1 1.00       0.000000000000
      0.5769633942D+00  0.1000000000D+01
 S   1 1.00       0.000000000000
      0.2297283136D+00  0.1000000000D+01
 S   1 1.00       0.000000000000
      0.9516444003D-01  0.1000000000D+01
 P   4 1.00       0.000000000000
      0.3469723224D+02  0.1132722000D-01
      0.7958262283D+01  0.7616965920D-01
      0.2378082688D+01  0.3019225220D+00
      0.8143320818D+00  0.7278502735D+00
 P   1 1.00       0.000000000000
      0.2888754725D+00  0.1000000000D+01
 P   1 1.00       0.000000000000
      0.1005682367D+00  0.1000000000D+01
 D   1 1.00       0.000000000000
      0.1097000000D+01  0.1000000000D+01
 D   1 1.00       0.000000000000
      0.3180000000D+00  0.1000000000D+01
 F   1 1.00       0.000000000000
      0.7610000000D+00  0.1000000000D+01
 ****
     22 0
 S   3 1.00       0.000000000000
      0.3406134100D+02  0.2543930721D-01
      0.5123574600D+01  0.1900859489D+00
      0.1164662600D+01  0.8524411301D+00
 S   1 1.00       0.000000000000
      0.3272304100D+00  0.1000000000D+01
 S   1 1.00       0.000000000000
      0.1030724100D+00  0.1000000000D+01
 P   1 1.00       0.000000000000
      0.8000000000D+00  0.1000000000D+01
 ****
     23 0
 S   3 1.00       0.000000000000
      0.3406134100D+02  0.2543930721D-01
      0.5123574600D+01  0.1900859489D+00
      0.1164662600D+01  0.8524411301D+00
 S   1 1.00       0.000000000000
      0.3272304100D+00  0.1000000000D+01
 S   1 1.00       0.000000000000
      0.1030724100D+00  0.1000000000D+01
 P   1 1.00       0.000000000000
      0.8000000000D+00  0.1000000000D+01
 ****
     24 0
 S   3 1.00       0.000000000000
      0.3406134100D+02  0.2543930721D-01
      0.5123574600D+01  0.1900859489D+00
      0.1164662600D+01  0.8524411301D+00
 S   1 1.00       0.000000000000
      0.3272304100D+00  0.1000000000D+01
 S   1 1.00       0.000000000000
      0.1030724100D+00  0.1000000000D+01
 P   1 1.00       0.000000000000
      0.8000000000D+00  0.1000000000D+01
 ****
     25 0
 S   6 1.00       0.000000000000
      0.2703238263D+05  0.5722733521D-03
      0.4052387139D+04  0.4435323349D-02
      0.9223272271D+03  0.2302010771D-01
      0.2612407099D+03  0.9282249067D-01
      0.8535464135D+02  0.2937850001D+00
      0.3103503524D+02  0.6740160450D+00
 S   2 1.00       0.000000000000
      0.1226086073D+02  0.6383993703D+00
      0.4998707601D+01  0.3953458713D+00
 S   1 1.00       0.000000000000
      0.1170310816D+01  0.1000000000D+01
 S   1 1.00       0.000000000000
      0.4647474099D+00  0.1000000000D+01
 S   1 1.00       0.000000000000
      0.1850453636D+00  0.1000000000D+01
 P   4 1.00       0.000000000000
      0.6327495480D+02  0.1201833222D-01
      0.1462704938D+02  0.8300542179D-01
      0.4450122346D+01  0.3199174393D+00
      0.1527579965D+01  0.7071554292D+00
 P   1 1.00       0.000000000000
      0.5293511794D+00  0.1000000000D+01
 P   1 1.00       0.000000000000
      0.1747842127D+00  0.1000000000D+01
 D   1 1.00       0.000000000000
      0.2314000000D+01  0.1000000000D+01
 D   1 1.00       0.000000000000
      0.6450000000D+00  0.1000000000D+01
 F   1 1.00       0.000000000000
      0.1428000000D+01  0.1000000000D+01
 ****
     26 0
 S   6 1.00       0.000000000000
      0.1357534968D+05  0.6064550360D-03
      0.2035233368D+04  0.4697908888D-02
      0.4632256236D+03  0.2433247765D-01
      0.1312001960D+03  0.9739996831D-01
      0.4285301589D+02  0.3019558425D+00
      0.1558418577D+02  0.6623360914D+00
 S   2 1.00       0.000000000000
      0.6206713851D+01  0.6559530854D+00
      0.2576489653D+01  0.3758563329D+00
 S   1 1.00       0.000000000000
      0.5769633942D+00  0.1000000000D+01
 S   1 1.00       0.000000000000
      0.2297283136D+00  0.1000000000D+01
 S   1 1.00       0.000000000000
      0.9516444003D-01  0.1000000000D+01
 P   4 1.00       0.000000000000
      0.3469723224D+02  0.1132722000D-01
      0.7958262283D+01  0.7616965920D-01
      0.2378082688D+01  0.3019225220D+00
      0.8143320818D+00  0.7278502735D+00
 P   1 1.00       0.000000000000
      0.2888754725D+00  0.1000000000D+01
 P   1 1.00       0.000000000000
      0.1005682367D+00  0.1000000000D+01
 D   1 1.00       0.000000000000
      0.1097000000D+01  0.1000000000D+01
 D   1 1.00       0.000000000000
      0.3180000000D+00  0.1000000000D+01
 F   1 1.00       0.000000000000
      0.7610000000D+00  0.1000000000D+01
 ****
     27 0
 S   6 1.00       0.000000000000
      0.1357534968D+05  0.6064550360D-03
      0.2035233368D+04  0.4697908888D-02
      0.4632256236D+03  0.2433247765D-01
      0.1312001960D+03  0.9739996831D-01
      0.4285301589D+02  0.3019558425D+00
      0.1558418577D+02  0.6623360914D+00
 S   2 1.00       0.000000000000
      0.6206713851D+01  0.6559530854D+00
      0.2576489653D+01  0.3758563329D+00
 S   1 1.00       0.000000000000
      0.5769633942D+00  0.1000000000D+01
 S   1 1.00       0.000000000000
      0.2297283136D+00  0.1000000000D+01
 S   1 1.00       0.000000000000
      0.9516444003D-01  0.1000000000D+01
 P   4 1.00       0.000000000000
      0.3469723224D+02  0.1132722000D-01
      0.7958262283D+01  0.7616965920D-01
      0.2378082688D+01  0.3019225220D+00
      0.8143320818D+00  0.7278502735D+00
 P   1 1.00       0.000000000000
      0.2888754725D+00  0.1000000000D+01
 P   1 1.00       0.000000000000
      0.1005682367D+00  0.1000000000D+01
 D   1 1.00       0.000000000000
      0.1097000000D+01  0.1000000000D+01
 D   1 1.00       0.000000000000
      0.3180000000D+00  0.1000000000D+01
 F   1 1.00       0.000000000000
      0.7610000000D+00  0.1000000000D+01
 ****
     28 0
 S   6 1.00       0.000000000000
      0.1357534968D+05  0.6064550360D-03
      0.2035233368D+04  0.4697908888D-02
      0.4632256236D+03  0.2433247765D-01
      0.1312001960D+03  0.9739996831D-01
      0.4285301589D+02  0.3019558425D+00
      0.1558418577D+02  0.6623360914D+00
 S   2 1.00       0.000000000000
      0.6206713851D+01  0.6559530854D+00
      0.2576489653D+01  0.3758563329D+00
 S   1 1.00       0.000000000000
      0.5769633942D+00  0.1000000000D+01
 S   1 1.00       0.000000000000
      0.2297283136D+00  0.1000000000D+01
 S   1 1.00       0.000000000000
      0.9516444003D-01  0.1000000000D+01
 P   4 1.00       0.000000000000
      0.3469723224D+02  0.1132722000D-01
      0.7958262283D+01  0.7616965920D-01
      0.2378082688D+01  0.3019225220D+00
      0.8143320818D+00  0.7278502735D+00
 P   1 1.00       0.000000000000
      0.2888754725D+00  0.1000000000D+01
 P   1 1.00       0.000000000000
      0.1005682367D+00  0.1000000000D+01
 D   1 1.00       0.000000000000
      0.1097000000D+01  0.1000000000D+01
 D   1 1.00       0.000000000000
      0.3180000000D+00  0.1000000000D+01
 F   1 1.00       0.000000000000
      0.7610000000D+00  0.1000000000D+01
 ****
     29 0
 S   6 1.00       0.000000000000
      0.1357534968D+05  0.6064550360D-03
      0.2035233368D+04  0.4697908888D-02
      0.4632256236D+03  0.2433247765D-01
      0.1312001960D+03  0.9739996831D-01
      0.4285301589D+02  0.3019558425D+00
      0.1558418577D+02  0.6623360914D+00
 S   2 1.00       0.000000000000
      0.6206713851D+01  0.6559530854D+00
      0.2576489653D+01  0.3758563329D+00
 S   1 1.00       0.000000000000
      0.5769633942D+00  0.1000000000D+01
 S   1 1.00       0.000000000000
      0.2297283136D+00  0.1000000000D+01
 S   1 1.00       0.000000000000
      0.9516444003D-01  0.1000000000D+01
 P   4 1.00       0.000000000000
      0.3469723224D+02  0.1132722000D-01
      0.7958262283D+01  0.7616965920D-01
      0.2378082688D+01  0.3019225220D+00
      0.8143320818D+00  0.7278502735D+00
 P   1 1.00       0.000000000000
      0.2888754725D+00  0.1000000000D+01
 P   1 1.00       0.000000000000
      0.1005682367D+00  0.1000000000D+01
 D   1 1.00       0.000000000000
      0.1097000000D+01  0.1000000000D+01
 D   1 1.00       0.000000000000
      0.3180000000D+00  0.1000000000D+01
 F   1 1.00       0.000000000000
      0.7610000000D+00  0.1000000000D+01
 ****
     30 0
 S   3 1.00       0.000000000000
      0.3406134100D+02  0.2543930721D-01
      0.5123574600D+01  0.1900859489D+00
      0.1164662600D+01  0.8524411301D+00
 S   1 1.00       0.000000000000
      0.3272304100D+00  0.1000000000D+01
 S   1 1.00       0.000000000000
      0.1030724100D+00  0.1000000000D+01
 P   1 1.00       0.000000000000
      0.8000000000D+00  0.1000000000D+01
 ****
     31 0
 S   3 1.00       0.000000000000
      0.3406134100D+02  0.2543930721D-01
      0.5123574600D+01  0.1900859489D+00
      0.1164662600D+01  0.8524411301D+00
 S   1 1.00       0.000000000000
      0.3272304100D+00  0.1000000000D+01
 S   1 1.00       0.000000000000
      0.1030724100D+00  0.1000000000D+01
 P   1 1.00       0.000000000000
      0.8000000000D+00  0.1000000000D+01
 ****
     32 0
 S   6 1.00       0.000000000000
      0.1357534968D+05  0.6064550360D-03
      0.2035233368D+04  0.4697908888D-02
      0.4632256236D+03  0.2433247765D-01
      0.1312001960D+03  0.9739996831D-01
      0.4285301589D+02  0.3019558425D+00
      0.1558418577D+02  0.6623360914D+00
 S   2 1.00       0.000000000000
      0.6206713851D+01  0.6559530854D+00
      0.2576489653D+01  0.3758563329D+00
[...]
 Root      5 not converged, maximum delta is    0.008986285543790
 Excitation Energies [eV] at current iteration:
 Root      1 :     3.122672237411087   Change is   -0.010879526456755
 Root      2 :     3.696647398898496   Change is   -0.010537283100991
 Root      3 :     3.968875540525435   Change is   -0.002413992365225
 Root      4 :     4.175527506257570   Change is   -0.004416892659516
 Root      5 :     4.285286138364006   Change is   -0.006187448575284
 Iteration     4 Dimension    40 NMult    30 NNew     10
 CISAX will form    10 AO SS matrices at one time.
 NMat=    10 NSing=    10 JSym2X= 0.
 Root      1 not converged, maximum delta is    0.006110757647120
 Root      2 not converged, maximum delta is    0.002277907905856
 Root      3 not converged, maximum delta is    0.006569317338434
 Root      4 not converged, maximum delta is    0.004314459762759
 Root      5 not converged, maximum delta is    0.010959946339480
 Excitation Energies [eV] at current iteration:
 Root      1 :     3.121670326219018   Change is   -0.001001911192069
 Root      2 :     3.695811174028873   Change is   -0.000836224869623
 Root      3 :     3.968597879627948   Change is   -0.000277660897487
 Root      4 :     4.175102058685282   Change is   -0.000425447572288
 Root      5 :     4.284154144785007   Change is   -0.001131993578999
 Iteration     5 Dimension    50 NMult    40 NNew     10
 CISAX will form    10 AO SS matrices at one time.
 NMat=    10 NSing=    10 JSym2X= 0.
 Root      1 not converged, maximum delta is    0.002531356627089
 Root      2 not converged, maximum delta is    0.001752113345752
 Root      3 not converged, maximum delta is    0.002989029765060
 Root      4 not converged, maximum delta is    0.005203397091193
 Root      5 not converged, maximum delta is    0.022170394029301
 Excitation Energies [eV] at current iteration:
 Root      1 :     3.121495052427839   Change is   -0.000175273791178
 Root      2 :     3.695700765593758   Change is   -0.000110408435115
 Root      3 :     3.968537468874945   Change is   -0.000060410753003
 Root      4 :     4.174988967528844   Change is   -0.000113091156439
 Root      5 :     4.283350850912089   Change is   -0.000803293872918
 Iteration     6 Dimension    60 NMult    50 NNew     10
 CISAX will form    10 AO SS matrices at one time.
 NMat=    10 NSing=    10 JSym2X= 0.
 Root      1 not converged, maximum delta is    0.000300951852532
 Root      2 not converged, maximum delta is    0.000335912034465
 Root      3 not converged, maximum delta is    0.000376730573438
 Root      4 not converged, maximum delta is    0.001963430370610
 Root      5 not converged, maximum delta is    0.015987637734202
 Excitation Energies [eV] at current iteration:
 Root      1 :     3.121481535360256   Change is   -0.000013517067584
 Root      2 :     3.695691352839551   Change is   -0.000009412754206
 Root      3 :     3.968532653487243   Change is   -0.000004815387702
 Root      4 :     4.174965869906455   Change is   -0.000023097622388
 Root      5 :     4.282968070441731   Change is   -0.000382780470358
 Iteration     7 Dimension    70 NMult    60 NNew     10
 CISAX will form    10 AO SS matrices at one time.
 NMat=    10 NSing=    10 JSym2X= 0.
 Root      1 not converged, maximum delta is    0.000082332248813
 Root      2 not converged, maximum delta is    0.000054878788011
 Root      3 not converged, maximum delta is    0.000062082099715
 Root      4 not converged, maximum delta is    0.000427968012169
 Root      5 not converged, maximum delta is    0.005025004970777
 Excitation Energies [eV] at current iteration:
 Root      1 :     3.121480502602695   Change is   -0.000001032757561
 Root      2 :     3.695690422151371   Change is   -0.000000930688181
 Root      3 :     3.968532276181488   Change is   -0.000000377305755
 Root      4 :     4.174962428987153   Change is   -0.000003440919302
 Root      5 :     4.282875645982823   Change is   -0.000092424458908
 Iteration     8 Dimension    80 NMult    70 NNew     10
 CISAX will form    10 AO SS matrices at one time.
 NMat=    10 NSing=    10 JSym2X= 0.
 Root      1 not converged, maximum delta is    0.000017874036604
 Root      2 not converged, maximum delta is    0.000028930857415
 Root      3 not converged, maximum delta is    0.000028599051788
 Root      4 not converged, maximum delta is    0.000060773007288
 Root      5 not converged, maximum delta is    0.000491496094325
 Excitation Energies [eV] at current iteration:
 Root      1 :     3.121480440301702   Change is   -0.000000062300993
 Root      2 :     3.695690336003467   Change is   -0.000000086147903
 Root      3 :     3.968532238706663   Change is   -0.000000037474825
 Root      4 :     4.174962097589241   Change is   -0.000000331397913
 Root      5 :     4.282867316221342   Change is   -0.000008329761481
 Iteration     9 Dimension    90 NMult    80 NNew     10
 CISAX will form    10 AO SS matrices at one time.
 NMat=    10 NSing=    10 JSym2X= 0.
 Root      1 not converged, maximum delta is    0.000008972343015
 Root      2 not converged, maximum delta is    0.000018851475489
 Root      3 not converged, maximum delta is    0.000016561833572
 Root      4 not converged, maximum delta is    0.000030236523960
 Root      5 not converged, maximum delta is    0.000191687069354
 Excitation Energies [eV] at current iteration:
 Root      1 :     3.121480435090058   Change is   -0.000000005211644
 Root      2 :     3.695690326398684   Change is   -0.000000009604783
 Root      3 :     3.968532234207627   Change is   -0.000000004499036
 Root      4 :     4.174962063218842   Change is   -0.000000034370399
 Root      5 :     4.282866319558386   Change is   -0.000000996662955
 Iteration    10 Dimension   100 NMult    90 NNew     10
 CISAX will form    10 AO SS matrices at one time.
 NMat=    10 NSing=    10 JSym2X= 0.
 Root      1 not converged, maximum delta is    0.000002586677632
 Root      2 not converged, maximum delta is    0.000006673300288
 Root      3 not converged, maximum delta is    0.000006430253271
 Root      4 not converged, maximum delta is    0.000014504826628
 Root      5 not converged, maximum delta is    0.000114822544441
 Excitation Energies [eV] at current iteration:
 Root      1 :     3.121480434636972   Change is   -0.000000000453085
 Root      2 :     3.695690325125430   Change is   -0.000000001273255
 Root      3 :     3.968532233380524   Change is   -0.000000000827103
 Root      4 :     4.174962059286687   Change is   -0.000000003932154
 Root      5 :     4.282866152734242   Change is   -0.000000166824145
 Iteration    11 Dimension   110 NMult   100 NNew     10
 CISAX will form    10 AO SS matrices at one time.
 NMat=    10 NSing=    10 JSym2X= 0.
 Root      1 has converged.
 Root      2 not converged, maximum delta is    0.000001370696475
 Root      3 not converged, maximum delta is    0.000001297065671
 Root      4 not converged, maximum delta is    0.000003536169613
 Root      5 not converged, maximum delta is    0.000022529518970
 Excitation Energies [eV] at current iteration:
 Root      1 :     3.121480434600391   Change is   -0.000000000036581
 Root      2 :     3.695690324985713   Change is   -0.000000000139716
 Root      3 :     3.968532233258680   Change is   -0.000000000121844
 Root      4 :     4.174962058832858   Change is   -0.000000000453829
 Root      5 :     4.282866133391627   Change is   -0.000000019342615
 Iteration    12 Dimension   118 NMult   110 NNew      8
 CISAX will form     8 AO SS matrices at one time.
 NMat=     8 NSing=     8 JSym2X= 0.
 Root      1 has converged.
 Root      2 has converged.
 Root      3 has converged.
 Root      4 has converged.
 Root      5 not converged, maximum delta is    0.000005589904796
 Excitation Energies [eV] at current iteration:
 Root      1 :     3.121480434598969   Change is   -0.000000000001422
 Root      2 :     3.695690324965716   Change is   -0.000000000019997
 Root      3 :     3.968532233241673   Change is   -0.000000000017007
 Root      4 :     4.174962058787156   Change is   -0.000000000045702
 Root      5 :     4.282866131584138   Change is   -0.000000001807489
 Iteration    13 Dimension   120 NMult   118 NNew      2
 CISAX will form     2 AO SS matrices at one time.
 NMat=     2 NSing=     2 JSym2X= 0.
 Root      1 has converged.
 Root      2 has converged.
 Root      3 has converged.
 Root      4 has converged.
 Root      5 has converged.
 Excitation Energies [eV] at current iteration:
 Root      1 :     3.121480434598864   Change is   -0.000000000000105
 Root      2 :     3.695690324965293   Change is   -0.000000000000423
 Root      3 :     3.968532233241591   Change is   -0.000000000000082
 Root      4 :     4.174962058786625   Change is   -0.000000000000532
 Root      5 :     4.282866131439699   Change is   -0.000000000144439
 Convergence achieved on expansion vectors.
 ***********************************************************************
 Excited states from <AA,BB:AA,BB> singles matrix:
 ***********************************************************************
 
 1PDM for each excited state written to RWF  633
 Ground to excited state transition densities written to RWF  633
 Ground to excited state transition electric dipole moments (Au):
       state          X           Y           Z        Dip. S.      Osc.
         1         1.6777     -0.0065     -0.0844      2.8218      0.2158
         2        -1.0610      0.1738     -0.0031      1.1559      0.1047
         3        -0.6355      0.0024      0.0323      0.4049      0.0394
         4         0.5199     -0.1573      0.0332      0.2961      0.0303
         5        -0.4237     -0.2098      0.0447      0.2255      0.0237
 Ground to excited state transition velocity dipole moments (Au):
       state          X           Y           Z        Dip. S.      Osc.
         1        -0.1921      0.0008      0.0090      0.0370      0.2149
         2         0.1429     -0.0237      0.0009      0.0210      0.1030
         3         0.0921     -0.0002     -0.0052      0.0085      0.0389
         4        -0.0796      0.0234     -0.0038      0.0069      0.0299
         5         0.0674      0.0337     -0.0088      0.0058      0.0244
 Ground to excited state transition magnetic dipole moments (Au):
       state          X           Y           Z
         1         0.3931      0.1521     -0.0585
         2         0.4614     -0.1634      0.1593
         3         0.0825     -0.0088      0.0959
         4        -0.1476     -0.8161     -1.2279
         5        -0.0933      0.6066     -0.3912
 Ground to excited state transition velocity quadrupole moments (Au):
       state          XX          YY          ZZ          XY          XZ          YZ
         1         2.0129     -0.0950     -0.0709      0.0974     -0.0924      0.0411
         2        -1.4175      0.0776      0.0900      0.0507      0.0270      0.0028
         3        -0.5952     -0.0122      0.0232     -0.1710      0.0525      0.0012
         4         1.4675      0.0634     -0.0048      0.1936     -0.0401     -0.0414
         5         0.0824      0.1125      0.0724      0.1308     -0.0919     -0.0541
 <0|del|b> * <b|rxdel|0> + <0|del|b> * <b|delr+rdel|0>
 Rotatory Strengths (R) in cgs (10**-40 erg-esu-cm/Gauss)
       state          XX          YY          ZZ    R(velocity)    E-M Angle
         1         1.7053   -261.3938   -208.2757   -155.9880      158.08
         2        12.2463    172.9524    179.0222    121.4070       20.25
         3         0.9821     15.3260     18.1233     11.4771       52.61
         4       -32.7336     47.1786    -26.7088     -4.0879       91.24
         5        58.0253    -12.0487     33.0404     26.3390       71.43
 1/2[<0|r|b>*<b|rxdel|0> + (<0|rxdel|b>*<b|r|0>)*]
 Rotatory Strengths (R) in cgs (10**-40 erg-esu-cm/Gauss)
       state          XX          YY          ZZ     R(length)
         1      -466.3599      0.6984     -3.4914   -156.3843
         2       346.1885     20.0865      0.3448    122.2066
         3        37.0844      0.0150     -2.1907     11.6362
         4        54.2574    -90.8074     28.8434     -2.5689
         5       -27.9688     89.9749     12.3763     24.7942
  1/2[<0|del|b>*<b|r|0> + (<0|r|b>*<b|del|0>)*] (Au)
       state          X           Y           Z        Dip. S.   Osc.(frdel)
         1        -0.3223     -0.0000     -0.0008      0.3230      0.2153
         2        -0.1516     -0.0041     -0.0000      0.1557      0.1038
         3        -0.0585     -0.0000     -0.0002      0.0587      0.0391
         4        -0.0414     -0.0037     -0.0001      0.0452      0.0301
         5        -0.0286     -0.0071     -0.0004      0.0360      0.0240

 Excitation energies and oscillator strengths:
 
 Excited State   1:      Singlet-A      3.1215 eV  397.20 nm  f=0.2158  <S**2>=0.000
      80 -> 86         0.38890
      81 -> 86         0.15319
      82 -> 86        -0.16066
      84 -> 86         0.52251
 This state for optimization and/or second-order correction.
 Total Energy, E(TD-HF/TD-DFT) =  -1069.73369152    
 Copying the excited state density for this state as the 1-particle RhoCI density.
 
 Excited State   2:      Singlet-A      3.6957 eV  335.48 nm  f=0.1047  <S**2>=0.000
      77 -> 86        -0.22774
      78 -> 86         0.14319
      80 -> 86         0.35209
      81 -> 86         0.12740
      82 -> 86        -0.24180
      84 -> 86        -0.43179
 
 Excited State   3:      Singlet-A      3.9685 eV  312.42 nm  f=0.0394  <S**2>=0.000
      85 -> 86         0.66843
      85 -> 87        -0.10009
 
 Excited State   4:      Singlet-A      4.1750 eV  296.97 nm  f=0.0303  <S**2>=0.000
      75 -> 86        -0.28903
      76 -> 86        -0.21141
      80 -> 86        -0.21570
      82 -> 86        -0.40932
      84 -> 87        -0.31828
      85 -> 86         0.11897
 
 Excited State   5:      Singlet-A      4.2829 eV  289.49 nm  f=0.0237  <S**2>=0.000
      75 -> 86         0.45000
      76 -> 86         0.27039
      77 -> 86         0.16278
      82 -> 86        -0.23130
      84 -> 87        -0.31837
 SavETr:  write IOETrn=   770 NScale= 10 NData=  16 NLR=1 NState=    5 LETran=     100.
 The selected state is a singlet.
 CISGrd: IGrad=2 NXY=2 DFT=T
 CISAX will form     1 AO SS matrices at one time.
 NMat=     1 NSing=     1 JSym2X= 0.
 GePol: Maximum number of non-zero 1st derivatives   =     219
 Leave Link  914 at Thu May  9 09:53:32 2024, MaxMem=  2684354560 cpu:          844917.3 elap:           35399.0
 (Enter /s/ls4/groups/g0130/bin/g16/l1002.exe)
 Minotr:  Closed shell wavefunction.
          Computing CIS/TDA/TD derivatives.
          Using Z-Vector for PSCF gradient.
          Skipping F1 and S1 gradient terms here.
          IDoAtm=111111111111111111111111111111111111111111
 NEqPCM:  Using equilibrium solvation (IEInf=0, Eps=  20.4930, EpsInf=   1.8463)
          Frozen-core window.
          Direct CPHF calculation.
          Differentiating once with respect to electric field.
                with respect to dipole field.
          Differentiating once with respect to nuclear coordinates.
          Requested convergence is 1.0D-10 RMS, and 1.0D-09 maximum.
          NewPWx=F KeepS1=T KeepF1=T KeepIn=T MapXYZ=F SortEE=F KeepMc=T.
 Two-electron integral symmetry used by symmetrizing perturbed Fock matrices.
          MDV=    2684354560 using IRadAn=       5.
          Solving linear equations separately, MaxMat=     384.
          There are     1 degrees of freedom in the 1st order CPHF.  IDoFFX=0 NUNeed=     1.
 FoFJK:  IHMeth= 1 ICntrl=       0 DoSepK=T KAlg= 0 I1Cent=           0 FoldK=F
 IRaf=         1 NMat=       1 IRICut=       1 DoRegI=T DoRafI=F ISym2E=-1 IDoP0=0 IntGTp=1.
 FoFCou: FMM=F IPFlag=           0 FMFlag=      100000 FMFlg1=           0
         NFxFlg=           0 DoJE=T BraDBF=F KetDBF=F FulRan=T
         wScrn=  0.000000 ICntrl=       500 IOpCl=  0 I1Cent=           0 NGrid=           0
         NMat0=    1 NMatS0=      1 NMatT0=    0 NMatD0=    1 NMtDS0=    0 NMtDT0=    0
 Petite list used in FoFCou.
 LinEq1:  Iter=  0 NonCon=     1 RMS=2.57D-03 Max=2.31D-01 NDo=     1
 AX will form     1 AO Fock derivatives at one time.
 LinEq1:  Iter=  1 NonCon=     1 RMS=1.33D-03 Max=1.50D-01 NDo=     1
 LinEq1:  Iter=  2 NonCon=     1 RMS=9.17D-04 Max=8.55D-02 NDo=     1
 LinEq1:  Iter=  3 NonCon=     1 RMS=5.41D-04 Max=6.24D-02 NDo=     1
 LinEq1:  Iter=  4 NonCon=     1 RMS=3.52D-04 Max=2.47D-02 NDo=     1
 LinEq1:  Iter=  5 NonCon=     1 RMS=1.43D-04 Max=7.22D-03 NDo=     1
 LinEq1:  Iter=  6 NonCon=     1 RMS=7.71D-05 Max=4.24D-03 NDo=     1
 LinEq1:  Iter=  7 NonCon=     1 RMS=2.86D-05 Max=1.94D-03 NDo=     1
 LinEq1:  Iter=  8 NonCon=     1 RMS=1.54D-05 Max=1.22D-03 NDo=     1
 LinEq1:  Iter=  9 NonCon=     1 RMS=8.74D-06 Max=7.68D-04 NDo=     1
 LinEq1:  Iter= 10 NonCon=     1 RMS=4.69D-06 Max=4.21D-04 NDo=     1
 LinEq1:  Iter= 11 NonCon=     1 RMS=2.06D-06 Max=1.37D-04 NDo=     1
 LinEq1:  Iter= 12 NonCon=     1 RMS=1.21D-06 Max=1.14D-04 NDo=     1
 LinEq1:  Iter= 13 NonCon=     1 RMS=6.11D-07 Max=2.62D-05 NDo=     1
 LinEq1:  Iter= 14 NonCon=     1 RMS=2.86D-07 Max=1.47D-05 NDo=     1
 LinEq1:  Iter= 15 NonCon=     1 RMS=1.63D-07 Max=1.52D-05 NDo=     1
 LinEq1:  Iter= 16 NonCon=     1 RMS=7.80D-08 Max=3.65D-06 NDo=     1
 LinEq1:  Iter= 17 NonCon=     1 RMS=4.45D-08 Max=3.82D-06 NDo=     1
 LinEq1:  Iter= 18 NonCon=     1 RMS=1.85D-08 Max=1.13D-06 NDo=     1
 LinEq1:  Iter= 19 NonCon=     1 RMS=1.02D-08 Max=8.38D-07 NDo=     1
 LinEq1:  Iter= 20 NonCon=     1 RMS=3.77D-09 Max=2.48D-07 NDo=     1
 LinEq1:  Iter= 21 NonCon=     1 RMS=1.84D-09 Max=9.08D-08 NDo=     1
 LinEq1:  Iter= 22 NonCon=     1 RMS=8.72D-10 Max=7.97D-08 NDo=     1
 LinEq1:  Iter= 23 NonCon=     1 RMS=4.17D-10 Max=3.00D-08 NDo=     1
 LinEq1:  Iter= 24 NonCon=     1 RMS=2.03D-10 Max=9.05D-09 NDo=     1
 LinEq1:  Iter= 25 NonCon=     1 RMS=8.49D-11 Max=5.16D-09 NDo=     1
 LinEq1:  Iter= 26 NonCon=     1 RMS=4.34D-11 Max=2.77D-09 NDo=     1
 LinEq1:  Iter= 27 NonCon=     0 RMS=1.43D-11 Max=9.71D-10 NDo=     1
 Linear equations converged to 1.000D-10 1.000D-09 after    27 iterations.
 End of Minotr F.D. properties file   721 does not exist.
 End of Minotr F.D. properties file   722 does not exist.
 End of Minotr F.D. properties file   788 does not exist.
 Leave Link 1002 at Thu May  9 10:42:14 2024, MaxMem=  2684354560 cpu:           69911.0 elap:            2921.2
 (Enter /s/ls4/groups/g0130/bin/g16/l701.exe)
 ... and contract with generalized density number  6.
 Compute integral first derivatives.
 R6Disp: Adding Grimme-D3(BJ) dispersion energy 1st derivatives to the gradient.
   1 Symmetry operations used in ECPInt.
 ECPInt:  NShTT=   56616 NPrTT=  173748 LenC2=   48794 LenP2D=  106271.
 LDataN:  DoStor=T MaxTD1= 7 Len=  274
 D1PCM: PCM CHGder 1st derivatives, ID1Alg=3 FixD1E=F DoIter=F DoCFld=F I1PDM=6.
 Leave Link  701 at Thu May  9 10:42:32 2024, MaxMem=  2684354560 cpu:             429.5 elap:              18.0
 (Enter /s/ls4/groups/g0130/bin/g16/l702.exe)
 L702 exits ... SP integral derivatives will be done elsewhere.
 Leave Link  702 at Thu May  9 10:42:32 2024, MaxMem=  2684354560 cpu:               0.3 elap:               0.0
 (Enter /s/ls4/groups/g0130/bin/g16/l703.exe)
 Integral derivatives from FoFJK, PRISM(SPDF).
 Compute integral first derivatives, UseDBF=F ICtDFT=           0.
 Calling FoFJK, ICntrl=  10005127 FMM=F ISym2X=0 I1Cent= 0 IOpClX= 0 NMat=1 NMatS=1 NMatT=0.
 FoFJK:  IHMeth= 1 ICntrl=10005127 DoSepK=T KAlg= 0 I1Cent=           0 FoldK=F
 IRaf=         1 NMat=       1 IRICut=       1 DoRegI=T DoRafI=F ISym2E= 0 IDoP0=0 IntGTp=1.
 FoFCou: FMM=F IPFlag=           0 FMFlag=      100000 FMFlg1=         800
         NFxFlg=           0 DoJE=F BraDBF=F KetDBF=F FulRan=T
         wScrn=  0.000000 ICntrl=  10005527 IOpCl=  0 I1Cent=           0 NGrid=           0
         NMat0=    1 NMatS0=      1 NMatT0=    0 NMatD0=    1 NMtDS0=    0 NMtDT0=    0
 Symmetry not used in FoFCou.
