 Entering Gaussian System, Link 0=/s/ls4/groups/g0130/bin/g16/g16
 Input=mc1_s1_m062x.gjf
 Output=mc1_s1_m062x.log
 Initial command:
 /s/ls4/groups/g0130/bin/g16/l1.exe "/dev/shm/scratch_artd/Gau-44486.inp" -scrdir="/dev/shm/scratch_artd/"
 Entering Link 1 = /s/ls4/groups/g0130/bin/g16/l1.exe PID=     44487.
  
 Copyright (c) 1988,1990,1992,1993,1995,1998,2003,2009,2016,
            Gaussian, Inc.  All Rights Reserved.
  
 This is part of the Gaussian(R) 16 program.  It is based on
 the Gaussian(R) 09 system (copyright 2009, Gaussian, Inc.),
 the Gaussian(R) 03 system (copyright 2003, Gaussian, Inc.),
 the Gaussian(R) 98 system (copyright 1998, Gaussian, Inc.),
 the Gaussian(R) 94 system (copyright 1995, Gaussian, Inc.),
 the Gaussian 92(TM) system (copyright 1992, Gaussian, Inc.),
 the Gaussian 90(TM) system (copyright 1990, Gaussian, Inc.),
 the Gaussian 88(TM) system (copyright 1988, Gaussian, Inc.),
 the Gaussian 86(TM) system (copyright 1986, Carnegie Mellon
 University), and the Gaussian 82(TM) system (copyright 1983,
 Carnegie Mellon University). Gaussian is a federally registered
 trademark of Gaussian, Inc.
  
 This software contains proprietary and confidential information,
 including trade secrets, belonging to Gaussian, Inc.
  
 This software is provided under written license and may be
 used, copied, transmitted, or stored only in accord with that
 written license.
  
 The following legend is applicable only to US Government
 contracts under FAR:
  
                    RESTRICTED RIGHTS LEGEND
  
 Use, reproduction and disclosure by the US Government is
 subject to restrictions as set forth in subparagraphs (a)
 and (c) of the Commercial Computer Software - Restricted
 Rights clause in FAR 52.227-19.
  
 Gaussian, Inc.
 340 Quinnipiac St., Bldg. 40, Wallingford CT 06492
  
  
 ---------------------------------------------------------------
 Warning -- This program may not be used in any manner that
 competes with the business of Gaussian, Inc. or will provide
 assistance to any competitor of Gaussian, Inc.  The licensee
 of this program is prohibited from giving any competitor of
 Gaussian, Inc. access to this program.  By using this program,
 the user acknowledges that Gaussian, Inc. is engaged in the
 business of creating and licensing software in the field of
 computational chemistry and represents and warrants to the
 licensee that it is not a competitor of Gaussian, Inc. and that
 it will not use this program in any manner prohibited above.
 ---------------------------------------------------------------
  

 Cite this work as:
 Gaussian 16, Revision A.03,
 M. J. Frisch, G. W. Trucks, H. B. Schlegel, G. E. Scuseria, 
 M. A. Robb, J. R. Cheeseman, G. Scalmani, V. Barone, 
 G. A. Petersson, H. Nakatsuji, X. Li, M. Caricato, A. V. Marenich, 
 J. Bloino, B. G. Janesko, R. Gomperts, B. Mennucci, H. P. Hratchian, 
 J. V. Ortiz, A. F. Izmaylov, J. L. Sonnenberg, D. Williams-Young, 
 F. Ding, F. Lipparini, F. Egidi, J. Goings, B. Peng, A. Petrone, 
 T. Henderson, D. Ranasinghe, V. G. Zakrzewski, J. Gao, N. Rega, 
 G. Zheng, W. Liang, M. Hada, M. Ehara, K. Toyota, R. Fukuda, 
 J. Hasegawa, M. Ishida, T. Nakajima, Y. Honda, O. Kitao, H. Nakai, 
 T. Vreven, K. Throssell, J. A. Montgomery, Jr., J. E. Peralta, 
 F. Ogliaro, M. J. Bearpark, J. J. Heyd, E. N. Brothers, K. N. Kudin, 
 V. N. Staroverov, T. A. Keith, R. Kobayashi, J. Normand, 
 K. Raghavachari, A. P. Rendell, J. C. Burant, S. S. Iyengar, 
 J. Tomasi, M. Cossi, J. M. Millam, M. Klene, C. Adamo, R. Cammi, 
 J. W. Ochterski, R. L. Martin, K. Morokuma, O. Farkas, 
 J. B. Foresman, and D. J. Fox, Gaussian, Inc., Wallingford CT, 2016.
 
 ******************************************
 Gaussian 16:  ES64L-G16RevA.03 25-Dec-2016
                10-Mar-2024 
 ******************************************
 %nprocshared=24
 Will use up to   24 processors via shared memory.
 %mem=20GB
 %oldchk=mc1_gs_m062x.chk
 %chk=mc1_s1_m062x.chk
 Copying data from "mc1_gs_m062x.chk" to current chk file "mc1_s1_m062x.chk"
 IOpt=  2 FromEx=T IUOpen= 4 IOptOp= 5 NList=   0 IFRang= 0 IUIn= 4 IUOut= 2.
 ----------------------------------------------------------------------
 #p M062X/def2TZVP SCRF(PCM,Solvent=chloroform) TD(Singlets,NStates=5, 
 root=1) integral=ultrafine opt guess=(read) geom=(allcheck) gfinput
 ----------------------------------------------------------------------
 1/18=20,19=15,26=6,29=7,38=1/1,3;
 2/9=110,12=2,40=1/2;
 3/5=44,7=101,11=9,14=-4,24=10,25=1,30=1,70=2201,71=1,72=7,74=-55,75=-5,116=-2/1,2,3,8;
 4/5=1/1;
 5/5=2,38=6,53=7/2;
 8/6=1,10=1,107=1,108=5/1;
 9/8=1,15=2,41=5,42=1,48=1,70=2/14;
 10/5=4,28=1/2;
 6/7=2,8=2,9=2,10=2/1;
 7/12=6,13=5,14=1/1,2,3,16;
 1/18=20,19=15,26=6/3(2);
 2/9=110/2;
 99//99;
 2/9=110/2;
 3/5=44,7=101,11=9,14=-2,25=1,30=1,70=2205,71=1,72=7,74=-55,75=-5/1,2,3,8;
 4/5=5,16=3,69=1/1;
 5/5=2,38=5,53=7/2;
 8/6=1,10=1,107=1,108=5/1;
 9/8=1,15=2,41=5,42=1,48=1,49=4,70=2/14;
 10/5=4,28=1/2;
 7/12=6,13=5,14=1/1,2,3,16;
 1/18=20,19=15,26=6/3(-8);
 2/9=110/2;
 6/7=2,8=2,9=2,10=2/1;
 99//99;
 Leave Link    1 at Sun Mar 10 13:15:40 2024, MaxMem=  2684354560 cpu:              28.9 elap:               1.3
 (Enter /s/ls4/groups/g0130/bin/g16/l101.exe)
 Structure from the checkpoint file:  "mc1_s1_m062x.chk"
 -----
 TITLE
 -----
 Charge =  0 Multiplicity = 1
 Redundant internal coordinates found in file.  (old form).
 C,0,-2.4003097474,2.3004138981,0.6198190366
 C,0,-1.5878202279,1.2216954921,0.2880960819
 C,0,-0.2759983023,1.4123344135,-0.1369933038
 C,0,0.1651711708,2.7180486636,-0.211572408
 C,0,-0.6292392955,3.8087103382,0.1061449186
 C,0,-1.9262109864,3.60826501,0.532513252
 H,0,-3.416173609,2.1208714179,0.9451912914
 H,0,-1.98010441,0.2160596129,0.3565320708
 H,0,-2.565611544,4.4441995738,0.7881355175
 H,0,0.3522399486,0.5745012321,-0.4057031093
 C,0,0.1726016657,5.0662609525,-0.0966593587
 C,0,1.4823902804,4.499940647,-0.608858751
 N,0,1.4462161089,3.1904995802,-0.5967208977
 C,0,-0.4506027615,5.9961314151,-1.1452891043
 H,0,-0.5794131754,5.4734867031,-2.090963829
 H,0,0.193893522,6.8608278889,-1.307342978
 H,0,-1.4183533122,6.3437248873,-0.7823066303
 C,0,0.3910776347,5.8124554261,1.2297330705
 H,0,0.877863446,5.1753062574,1.9683602834
 H,0,-0.5782419182,6.1199771974,1.6222160321
 H,0,0.9939875375,6.7071377715,1.0750749853
 C,0,2.6054122523,5.3135277974,-0.9474637844
 C,0,3.4658292725,4.3586079006,-3.1482057478
 C,0,2.2395630471,3.7827734135,-3.6934283038
 O,0,1.1236847403,3.9276829533,-3.157624038
 C,0,2.3858028808,3.0327915623,-4.924757991
 C,0,3.5793541275,2.8786991057,-5.552423004
 C,0,4.7333694465,3.4886730151,-5.0127110853
 C,0,4.664337288,4.2262916033,-3.8529555067
 C,0,2.5264651674,2.2824946559,-0.9244629079
 H,0,3.4709731982,2.8118375541,-0.849955159
 H,0,2.3961381842,1.9056529597,-1.9392669196
 H,0,2.5070289321,1.4563059822,-0.2170666112
 C,0,3.4888183898,5.178645567,-1.9698968145
 H,0,2.7320588721,6.1733668232,-0.2986898491
 H,0,4.3345718848,5.8596867786,-1.9246059518
 H,0,5.5636885726,4.6963224805,-3.4766284861
 H,0,3.6643130216,2.3076276913,-6.4661994271
 H,0,1.4845027231,2.5901673549,-5.3287206634
 N,0,5.9933817079,3.3485642427,-5.6882073225
 O,0,6.9793642608,3.8925484611,-5.2157058772
 O,0,6.0304100056,2.6866937188,-6.7132007196
 Recover connectivity data from disk.
 ITRead=  0  0  0  0  0  0  0  0  0  0  0  0  0  0  0  0  0  0  0  0
 ITRead=  0  0  0  0  0  0  0  0  0  0  0  0  0  0  0  0  0  0  0  0
 ITRead=  0  0
 MicOpt= -1 -1 -1 -1 -1 -1 -1 -1 -1 -1 -1 -1 -1 -1 -1 -1 -1 -1 -1 -1
 MicOpt= -1 -1 -1 -1 -1 -1 -1 -1 -1 -1 -1 -1 -1 -1 -1 -1 -1 -1 -1 -1
 MicOpt= -1 -1
 NAtoms=     42 NQM=       42 NQMF=       0 NMMI=      0 NMMIF=      0
                NMic=       0 NMicF=      0.
                    Isotopes and Nuclear Properties:
 (Nuclear quadrupole moments (NQMom) in fm**2, nuclear magnetic moments (NMagM)
  in nuclear magnetons)

  Atom         1           2           3           4           5           6           7           8           9          10
 IAtWgt=          12          12          12          12          12          12           1           1           1           1
 AtmWgt=  12.0000000  12.0000000  12.0000000  12.0000000  12.0000000  12.0000000   1.0078250   1.0078250   1.0078250   1.0078250
 NucSpn=           0           0           0           0           0           0           1           1           1           1
 AtZEff=   3.6000000   3.6000000   3.6000000   3.6000000   3.6000000   3.6000000   1.0000000   1.0000000   1.0000000   1.0000000
 NQMom=    0.0000000   0.0000000   0.0000000   0.0000000   0.0000000   0.0000000   0.0000000   0.0000000   0.0000000   0.0000000
 NMagM=    0.0000000   0.0000000   0.0000000   0.0000000   0.0000000   0.0000000   2.7928460   2.7928460   2.7928460   2.7928460
 AtZNuc=   6.0000000   6.0000000   6.0000000   6.0000000   6.0000000   6.0000000   1.0000000   1.0000000   1.0000000   1.0000000

  Atom        11          12          13          14          15          16          17          18          19          20
 IAtWgt=          12          12          14          12           1           1           1          12           1           1
 AtmWgt=  12.0000000  12.0000000  14.0030740  12.0000000   1.0078250   1.0078250   1.0078250  12.0000000   1.0078250   1.0078250
 NucSpn=           0           0           2           0           1           1           1           0           1           1
 AtZEff=   3.6000000   3.6000000   4.5500000   3.6000000   1.0000000   1.0000000   1.0000000   3.6000000   1.0000000   1.0000000
 NQMom=    0.0000000   0.0000000   2.0440000   0.0000000   0.0000000   0.0000000   0.0000000   0.0000000   0.0000000   0.0000000
 NMagM=    0.0000000   0.0000000   0.4037610   0.0000000   2.7928460   2.7928460   2.7928460   0.0000000   2.7928460   2.7928460
 AtZNuc=   6.0000000   6.0000000   7.0000000   6.0000000   1.0000000   1.0000000   1.0000000   6.0000000   1.0000000   1.0000000

  Atom        21          22          23          24          25          26          27          28          29          30
 IAtWgt=           1          12          12          12          16          12          12          12          12          12
 AtmWgt=   1.0078250  12.0000000  12.0000000  12.0000000  15.9949146  12.0000000  12.0000000  12.0000000  12.0000000  12.0000000
 NucSpn=           1           0           0           0           0           0           0           0           0           0
 AtZEff=   1.0000000   3.6000000   3.6000000   3.6000000   5.6000000   3.6000000   3.6000000   3.6000000   3.6000000   3.6000000
 NQMom=    0.0000000   0.0000000   0.0000000   0.0000000   0.0000000   0.0000000   0.0000000   0.0000000   0.0000000   0.0000000
 NMagM=    2.7928460   0.0000000   0.0000000   0.0000000   0.0000000   0.0000000   0.0000000   0.0000000   0.0000000   0.0000000
 AtZNuc=   1.0000000   6.0000000   6.0000000   6.0000000   8.0000000   6.0000000   6.0000000   6.0000000   6.0000000   6.0000000

  Atom        31          32          33          34          35          36          37          38          39          40
 IAtWgt=           1           1           1          12           1           1           1           1           1          14
 AtmWgt=   1.0078250   1.0078250   1.0078250  12.0000000   1.0078250   1.0078250   1.0078250   1.0078250   1.0078250  14.0030740
 NucSpn=           1           1           1           0           1           1           1           1           1           2
 AtZEff=   1.0000000   1.0000000   1.0000000   3.6000000   1.0000000   1.0000000   1.0000000   1.0000000   1.0000000   4.5500000
 NQMom=    0.0000000   0.0000000   0.0000000   0.0000000   0.0000000   0.0000000   0.0000000   0.0000000   0.0000000   2.0440000
 NMagM=    2.7928460   2.7928460   2.7928460   0.0000000   2.7928460   2.7928460   2.7928460   2.7928460   2.7928460   0.4037610
 AtZNuc=   1.0000000   1.0000000   1.0000000   6.0000000   1.0000000   1.0000000   1.0000000   1.0000000   1.0000000   7.0000000

  Atom        41          42
 IAtWgt=          16          16
 AtmWgt=  15.9949146  15.9949146
 NucSpn=           0           0
 AtZEff=   5.6000000   5.6000000
 NQMom=    0.0000000   0.0000000
 NMagM=    0.0000000   0.0000000
 AtZNuc=   8.0000000   8.0000000
 Leave Link  101 at Sun Mar 10 13:15:41 2024, MaxMem=  2684354560 cpu:               7.3 elap:               0.3
 (Enter /s/ls4/groups/g0130/bin/g16/l103.exe)

 GradGradGradGradGradGradGradGradGradGradGradGradGradGradGradGradGradGrad
 Berny optimization.
 Initialization pass.
                           ----------------------------
                           !    Initial Parameters    !
                           ! (Angstroms and Degrees)  !
 --------------------------                            --------------------------
 ! Name  Definition              Value          Derivative Info.                !
 --------------------------------------------------------------------------------
 ! R1    R(1,2)                  1.3906         estimate D2E/DX2                !
 ! R2    R(1,6)                  1.3939         estimate D2E/DX2                !
 ! R3    R(1,7)                  1.0817         estimate D2E/DX2                !
 ! R4    R(2,3)                  1.3921         estimate D2E/DX2                !
 ! R5    R(2,8)                  1.0816         estimate D2E/DX2                !
 ! R6    R(3,4)                  1.3802         estimate D2E/DX2                !
 ! R7    R(3,10)                 1.0811         estimate D2E/DX2                !
 ! R8    R(4,5)                  1.3862         estimate D2E/DX2                !
 ! R9    R(4,13)                 1.4187         estimate D2E/DX2                !
 ! R10   R(5,6)                  1.3799         estimate D2E/DX2                !
 ! R11   R(5,11)                 1.5052         estimate D2E/DX2                !
 ! R12   R(6,9)                  1.083          estimate D2E/DX2                !
 ! R13   R(11,12)                1.5161         estimate D2E/DX2                !
 ! R14   R(11,14)                1.5338         estimate D2E/DX2                !
 ! R15   R(11,18)                1.5375         estimate D2E/DX2                !
 ! R16   R(12,13)                1.31           estimate D2E/DX2                !
 ! R17   R(12,22)                1.4275         estimate D2E/DX2                !
 ! R18   R(13,30)                1.4487         estimate D2E/DX2                !
 ! R19   R(14,15)                1.0881         estimate D2E/DX2                !
 ! R20   R(14,16)                1.0906         estimate D2E/DX2                !
 ! R21   R(14,17)                1.0905         estimate D2E/DX2                !
 ! R22   R(18,19)                1.0902         estimate D2E/DX2                !
 ! R23   R(18,20)                1.09           estimate D2E/DX2                !
 ! R24   R(18,21)                1.0899         estimate D2E/DX2                !
 ! R25   R(22,34)                1.3579         estimate D2E/DX2                !
 ! R26   R(22,35)                1.0846         estimate D2E/DX2                !
 ! R27   R(23,24)                1.4603         estimate D2E/DX2                !
 ! R28   R(23,29)                1.3966         estimate D2E/DX2                !
 ! R29   R(23,34)                1.4358         estimate D2E/DX2                !
 ! R30   R(24,25)                1.2463         estimate D2E/DX2                !
 ! R31   R(24,26)                1.4491         estimate D2E/DX2                !
 ! R32   R(26,27)                1.3573         estimate D2E/DX2                !
 ! R33   R(26,39)                1.0823         estimate D2E/DX2                !
 ! R34   R(27,28)                1.4125         estimate D2E/DX2                !
 ! R35   R(27,38)                1.0809         estimate D2E/DX2                !
 ! R36   R(28,29)                1.3762         estimate D2E/DX2                !
 ! R37   R(28,40)                1.4365         estimate D2E/DX2                !
 ! R38   R(29,37)                1.0823         estimate D2E/DX2                !
 ! R39   R(30,31)                1.0853         estimate D2E/DX2                !
 ! R40   R(30,32)                1.0903         estimate D2E/DX2                !
 ! R41   R(30,33)                1.0878         estimate D2E/DX2                !
 ! R42   R(34,36)                1.0868         estimate D2E/DX2                !
 ! R43   R(40,41)                1.2212         estimate D2E/DX2                !
 ! R44   R(40,42)                1.2207         estimate D2E/DX2                !
 ! A1    A(2,1,6)              120.9423         estimate D2E/DX2                !
 ! A2    A(2,1,7)              119.4526         estimate D2E/DX2                !
 ! A3    A(6,1,7)              119.6044         estimate D2E/DX2                !
 ! A4    A(1,2,3)              121.1439         estimate D2E/DX2                !
 ! A5    A(1,2,8)              119.6189         estimate D2E/DX2                !
 ! A6    A(3,2,8)              119.2368         estimate D2E/DX2                !
 ! A7    A(2,3,4)              116.5673         estimate D2E/DX2                !
 ! A8    A(2,3,10)             121.155          estimate D2E/DX2                !
 ! A9    A(4,3,10)             122.2724         estimate D2E/DX2                !
 ! A10   A(3,4,5)              123.2812         estimate D2E/DX2                !
 ! A11   A(3,4,13)             128.1945         estimate D2E/DX2                !
 ! A12   A(5,4,13)             108.5233         estimate D2E/DX2                !
 ! A13   A(4,5,6)              119.6811         estimate D2E/DX2                !
 ! A14   A(4,5,11)             108.7344         estimate D2E/DX2                !
 ! A15   A(6,5,11)             131.5836         estimate D2E/DX2                !
 ! A16   A(1,6,5)              118.3817         estimate D2E/DX2                !
 ! A17   A(1,6,9)              120.5722         estimate D2E/DX2                !
 ! A18   A(5,6,9)              121.045          estimate D2E/DX2                !
 ! A19   A(5,11,12)            101.1667         estimate D2E/DX2                !
 ! A20   A(5,11,14)            112.4684         estimate D2E/DX2                !
 ! A21   A(5,11,18)            111.4047         estimate D2E/DX2                !
 ! A22   A(12,11,14)           110.2729         estimate D2E/DX2                !
 ! A23   A(12,11,18)           110.4861         estimate D2E/DX2                !
 ! A24   A(14,11,18)           110.6897         estimate D2E/DX2                !
 ! A25   A(11,12,13)           110.2666         estimate D2E/DX2                !
 ! A26   A(11,12,22)           123.1537         estimate D2E/DX2                !
 ! A27   A(13,12,22)           126.4142         estimate D2E/DX2                !
 ! A28   A(4,13,12)            111.1207         estimate D2E/DX2                !
 ! A29   A(4,13,30)            121.7361         estimate D2E/DX2                !
 ! A30   A(12,13,30)           127.143          estimate D2E/DX2                !
 ! A31   A(11,14,15)           110.5527         estimate D2E/DX2                !
 ! A32   A(11,14,16)           110.0081         estimate D2E/DX2                !
 ! A33   A(11,14,17)           109.0414         estimate D2E/DX2                !
 ! A34   A(15,14,16)           108.7626         estimate D2E/DX2                !
 ! A35   A(15,14,17)           109.7146         estimate D2E/DX2                !
 ! A36   A(16,14,17)           108.7351         estimate D2E/DX2                !
 ! A37   A(11,18,19)           111.3648         estimate D2E/DX2                !
 ! A38   A(11,18,20)           108.7347         estimate D2E/DX2                !
 ! A39   A(11,18,21)           110.7685         estimate D2E/DX2                !
 ! A40   A(19,18,20)           108.5419         estimate D2E/DX2                !
 ! A41   A(19,18,21)           109.202          estimate D2E/DX2                !
 ! A42   A(20,18,21)           108.1449         estimate D2E/DX2                !
 ! A43   A(12,22,34)           129.3296         estimate D2E/DX2                !
 ! A44   A(12,22,35)           113.6921         estimate D2E/DX2                !
 ! A45   A(34,22,35)           116.948          estimate D2E/DX2                !
 ! A46   A(24,23,29)           119.659          estimate D2E/DX2                !
 ! A47   A(24,23,34)           123.0293         estimate D2E/DX2                !
 ! A48   A(29,23,34)           117.0323         estimate D2E/DX2                !
 ! A49   A(23,24,25)           123.0576         estimate D2E/DX2                !
 ! A50   A(23,24,26)           115.8851         estimate D2E/DX2                !
 ! A51   A(25,24,26)           121.0525         estimate D2E/DX2                !
 ! A52   A(24,26,27)           122.7123         estimate D2E/DX2                !
 ! A53   A(24,26,39)           116.407          estimate D2E/DX2                !
 ! A54   A(27,26,39)           120.8805         estimate D2E/DX2                !
 ! A55   A(26,27,28)           119.5195         estimate D2E/DX2                !
 ! A56   A(26,27,38)           121.3348         estimate D2E/DX2                !
 ! A57   A(28,27,38)           119.1413         estimate D2E/DX2                !
 ! A58   A(27,28,29)           120.8299         estimate D2E/DX2                !
 ! A59   A(27,28,40)           119.6587         estimate D2E/DX2                !
 ! A60   A(29,28,40)           119.5089         estimate D2E/DX2                !
 ! A61   A(23,29,28)           121.27           estimate D2E/DX2                !
 ! A62   A(23,29,37)           119.7672         estimate D2E/DX2                !
 ! A63   A(28,29,37)           118.9546         estimate D2E/DX2                !
 ! A64   A(13,30,31)           109.1292         estimate D2E/DX2                !
 ! A65   A(13,30,32)           109.7581         estimate D2E/DX2                !
 ! A66   A(13,30,33)           108.3957         estimate D2E/DX2                !
 ! A67   A(31,30,32)           109.6636         estimate D2E/DX2                !
 ! A68   A(31,30,33)           109.9585         estimate D2E/DX2                !
 ! A69   A(32,30,33)           109.9139         estimate D2E/DX2                !
 ! A70   A(22,34,23)           131.6241         estimate D2E/DX2                !
 ! A71   A(22,34,36)           114.3706         estimate D2E/DX2                !
 ! A72   A(23,34,36)           113.864          estimate D2E/DX2                !
 ! A73   A(28,40,41)           118.8684         estimate D2E/DX2                !
 ! A74   A(28,40,42)           118.3166         estimate D2E/DX2                !
 ! A75   A(41,40,42)           122.8149         estimate D2E/DX2                !
 ! D1    D(6,1,2,3)              0.2056         estimate D2E/DX2                !
 ! D2    D(6,1,2,8)           -179.5384         estimate D2E/DX2                !
 ! D3    D(7,1,2,3)            179.8854         estimate D2E/DX2                !
 ! D4    D(7,1,2,8)              0.1414         estimate D2E/DX2                !
 ! D5    D(2,1,6,5)              0.102          estimate D2E/DX2                !
 ! D6    D(2,1,6,9)            179.7254         estimate D2E/DX2                !
 ! D7    D(7,1,6,5)           -179.5773         estimate D2E/DX2                !
 ! D8    D(7,1,6,9)              0.0461         estimate D2E/DX2                !
 ! D9    D(1,2,3,4)             -0.1153         estimate D2E/DX2                !
 ! D10   D(1,2,3,10)          -179.2959         estimate D2E/DX2                !
 ! D11   D(8,2,3,4)            179.6296         estimate D2E/DX2                !
 ! D12   D(8,2,3,10)             0.4491         estimate D2E/DX2                !
 ! D13   D(2,3,4,5)             -0.2874         estimate D2E/DX2                !
 ! D14   D(2,3,4,13)           179.3083         estimate D2E/DX2                !
 ! D15   D(10,3,4,5)           178.8832         estimate D2E/DX2                !
 ! D16   D(10,3,4,13)           -1.5211         estimate D2E/DX2                !
 ! D17   D(3,4,5,6)              0.6004         estimate D2E/DX2                !
 ! D18   D(3,4,5,11)          -179.7024         estimate D2E/DX2                !
 ! D19   D(13,4,5,6)          -179.0645         estimate D2E/DX2                !
 ! D20   D(13,4,5,11)            0.6327         estimate D2E/DX2                !
 ! D21   D(3,4,13,12)          177.0053         estimate D2E/DX2                !
 ! D22   D(3,4,13,30)           -2.8061         estimate D2E/DX2                !
 ! D23   D(5,4,13,12)           -3.3512         estimate D2E/DX2                !
 ! D24   D(5,4,13,30)          176.8374         estimate D2E/DX2                !
 ! D25   D(4,5,6,1)             -0.4868         estimate D2E/DX2                !
 ! D26   D(4,5,6,9)            179.8916         estimate D2E/DX2                !
 ! D27   D(11,5,6,1)           179.8964         estimate D2E/DX2                !
 ! D28   D(11,5,6,9)             0.2749         estimate D2E/DX2                !
 ! D29   D(4,5,11,12)            1.8243         estimate D2E/DX2                !
 ! D30   D(4,5,11,14)          119.4588         estimate D2E/DX2                !
 ! D31   D(4,5,11,18)         -115.5978         estimate D2E/DX2                !
 ! D32   D(6,5,11,12)         -178.5273         estimate D2E/DX2                !
 ! D33   D(6,5,11,14)          -60.8928         estimate D2E/DX2                !
 ! D34   D(6,5,11,18)           64.0506         estimate D2E/DX2                !
 ! D35   D(5,11,12,13)          -3.9185         estimate D2E/DX2                !
 ! D36   D(5,11,12,22)        -179.5112         estimate D2E/DX2                !
 ! D37   D(14,11,12,13)       -123.14           estimate D2E/DX2                !
 ! D38   D(14,11,12,22)         61.2672         estimate D2E/DX2                !
 ! D39   D(18,11,12,13)        114.1718         estimate D2E/DX2                !
 ! D40   D(18,11,12,22)        -61.421          estimate D2E/DX2                !
 ! D41   D(5,11,14,15)         -56.1935         estimate D2E/DX2                !
 ! D42   D(5,11,14,16)        -176.3327         estimate D2E/DX2                !
 ! D43   D(5,11,14,17)          64.5051         estimate D2E/DX2                !
 ! D44   D(12,11,14,15)         55.9033         estimate D2E/DX2                !
 ! D45   D(12,11,14,16)        -64.2358         estimate D2E/DX2                !
 ! D46   D(12,11,14,17)        176.602          estimate D2E/DX2                !
 ! D47   D(18,11,14,15)        178.4721         estimate D2E/DX2                !
 ! D48   D(18,11,14,16)         58.3329         estimate D2E/DX2                !
 ! D49   D(18,11,14,17)        -60.8293         estimate D2E/DX2                !
 ! D50   D(5,11,18,19)          56.8073         estimate D2E/DX2                !
 ! D51   D(5,11,18,20)         -62.7466         estimate D2E/DX2                !
 ! D52   D(5,11,18,21)         178.5472         estimate D2E/DX2                !
 ! D53   D(12,11,18,19)        -54.8162         estimate D2E/DX2                !
 ! D54   D(12,11,18,20)       -174.3701         estimate D2E/DX2                !
 ! D55   D(12,11,18,21)         66.9237         estimate D2E/DX2                !
 ! D56   D(14,11,18,19)       -177.2607         estimate D2E/DX2                !
 ! D57   D(14,11,18,20)         63.1854         estimate D2E/DX2                !
 ! D58   D(14,11,18,21)        -55.5207         estimate D2E/DX2                !
 ! D59   D(11,12,13,4)           4.613          estimate D2E/DX2                !
 ! D60   D(11,12,13,30)       -175.5883         estimate D2E/DX2                !
 ! D61   D(22,12,13,4)        -179.9724         estimate D2E/DX2                !
 ! D62   D(22,12,13,30)         -0.1737         estimate D2E/DX2                !
 ! D63   D(11,12,22,34)       -141.5109         estimate D2E/DX2                !
 ! D64   D(11,12,22,35)         36.3963         estimate D2E/DX2                !
 ! D65   D(13,12,22,34)         43.6285         estimate D2E/DX2                !
 ! D66   D(13,12,22,35)       -138.4643         estimate D2E/DX2                !
 ! D67   D(4,13,30,31)        -160.4674         estimate D2E/DX2                !
 ! D68   D(4,13,30,32)          79.3319         estimate D2E/DX2                !
 ! D69   D(4,13,30,33)         -40.7252         estimate D2E/DX2                !
 ! D70   D(12,13,30,31)         19.7534         estimate D2E/DX2                !
 ! D71   D(12,13,30,32)       -100.4473         estimate D2E/DX2                !
 ! D72   D(12,13,30,33)        139.4956         estimate D2E/DX2                !
 ! D73   D(12,22,34,23)         12.5347         estimate D2E/DX2                !
 ! D74   D(12,22,34,36)       -172.1279         estimate D2E/DX2                !
 ! D75   D(35,22,34,23)       -165.3154         estimate D2E/DX2                !
 ! D76   D(35,22,34,36)         10.022          estimate D2E/DX2                !
 ! D77   D(29,23,24,25)       -175.8012         estimate D2E/DX2                !
 ! D78   D(29,23,24,26)          3.4098         estimate D2E/DX2                !
 ! D79   D(34,23,24,25)         -2.0572         estimate D2E/DX2                !
 ! D80   D(34,23,24,26)        177.1538         estimate D2E/DX2                !
 ! D81   D(24,23,29,28)         -4.2341         estimate D2E/DX2                !
 ! D82   D(24,23,29,37)        176.8163         estimate D2E/DX2                !
 ! D83   D(34,23,29,28)       -178.3471         estimate D2E/DX2                !
 ! D84   D(34,23,29,37)          2.7033         estimate D2E/DX2                !
 ! D85   D(24,23,34,22)         20.2289         estimate D2E/DX2                !
 ! D86   D(24,23,34,36)       -155.127          estimate D2E/DX2                !
 ! D87   D(29,23,34,22)       -165.8737         estimate D2E/DX2                !
 ! D88   D(29,23,34,36)         18.7704         estimate D2E/DX2                !
 ! D89   D(23,24,26,27)         -0.7094         estimate D2E/DX2                !
 ! D90   D(23,24,26,39)        179.1437         estimate D2E/DX2                !
 ! D91   D(25,24,26,27)        178.5187         estimate D2E/DX2                !
 ! D92   D(25,24,26,39)         -1.6282         estimate D2E/DX2                !
 ! D93   D(24,26,27,28)         -1.274          estimate D2E/DX2                !
 ! D94   D(24,26,27,38)        179.4988         estimate D2E/DX2                !
 ! D95   D(39,26,27,28)        178.8792         estimate D2E/DX2                !
 ! D96   D(39,26,27,38)         -0.3479         estimate D2E/DX2                !
 ! D97   D(26,27,28,29)          0.5944         estimate D2E/DX2                !
 ! D98   D(26,27,28,40)       -178.8293         estimate D2E/DX2                !
 ! D99   D(38,27,28,29)        179.8385         estimate D2E/DX2                !
 ! D100  D(38,27,28,40)          0.4148         estimate D2E/DX2                !
 ! D101  D(27,28,29,23)          2.2099         estimate D2E/DX2                !
 ! D102  D(27,28,29,37)       -178.8321         estimate D2E/DX2                !
 ! D103  D(40,28,29,23)       -178.3655         estimate D2E/DX2                !
 ! D104  D(40,28,29,37)          0.5925         estimate D2E/DX2                !
 ! D105  D(27,28,40,41)        179.3092         estimate D2E/DX2                !
 ! D106  D(27,28,40,42)         -0.7558         estimate D2E/DX2                !
 ! D107  D(29,28,40,41)         -0.1222         estimate D2E/DX2                !
 ! D108  D(29,28,40,42)        179.8128         estimate D2E/DX2                !
 --------------------------------------------------------------------------------
 Trust Radius=3.00D-01 FncErr=5.00D-06 GrdErr=5.00D-06 EigMax=2.50D+02 EigMin=1.00D-04
 Number of steps in this run=    237 maximum allowed number of steps=    252.
 GradGradGradGradGradGradGradGradGradGradGradGradGradGradGradGradGradGrad

 Leave Link  103 at Sun Mar 10 13:15:41 2024, MaxMem=  2684354560 cpu:               0.5 elap:               0.0
 (Enter /s/ls4/groups/g0130/bin/g16/l202.exe)
                          Input orientation:                          
 ---------------------------------------------------------------------
 Center     Atomic      Atomic             Coordinates (Angstroms)
 Number     Number       Type             X           Y           Z
 ---------------------------------------------------------------------
      1          6           0       -2.400310    2.300414    0.619819
      2          6           0       -1.587820    1.221695    0.288096
      3          6           0       -0.275998    1.412334   -0.136993
      4          6           0        0.165171    2.718049   -0.211572
      5          6           0       -0.629239    3.808710    0.106145
      6          6           0       -1.926211    3.608265    0.532513
      7          1           0       -3.416174    2.120871    0.945191
      8          1           0       -1.980104    0.216060    0.356532
      9          1           0       -2.565612    4.444200    0.788136
     10          1           0        0.352240    0.574501   -0.405703
     11          6           0        0.172602    5.066261   -0.096659
     12          6           0        1.482390    4.499941   -0.608859
     13          7           0        1.446216    3.190500   -0.596721
     14          6           0       -0.450603    5.996131   -1.145289
     15          1           0       -0.579413    5.473487   -2.090964
     16          1           0        0.193894    6.860828   -1.307343
     17          1           0       -1.418353    6.343725   -0.782307
     18          6           0        0.391078    5.812455    1.229733
     19          1           0        0.877863    5.175306    1.968360
     20          1           0       -0.578242    6.119977    1.622216
     21          1           0        0.993988    6.707138    1.075075
     22          6           0        2.605412    5.313528   -0.947464
     23          6           0        3.465829    4.358608   -3.148206
     24          6           0        2.239563    3.782773   -3.693428
     25          8           0        1.123685    3.927683   -3.157624
     26          6           0        2.385803    3.032792   -4.924758
     27          6           0        3.579354    2.878699   -5.552423
     28          6           0        4.733369    3.488673   -5.012711
     29          6           0        4.664337    4.226292   -3.852956
     30          6           0        2.526465    2.282495   -0.924463
     31          1           0        3.470973    2.811838   -0.849955
     32          1           0        2.396138    1.905653   -1.939267
     33          1           0        2.507029    1.456306   -0.217067
     34          6           0        3.488818    5.178646   -1.969897
     35          1           0        2.732059    6.173367   -0.298690
     36          1           0        4.334572    5.859687   -1.924606
     37          1           0        5.563689    4.696322   -3.476628
     38          1           0        3.664313    2.307628   -6.466199
     39          1           0        1.484503    2.590167   -5.328721
     40          7           0        5.993382    3.348564   -5.688207
     41          8           0        6.979364    3.892548   -5.215706
     42          8           0        6.030410    2.686694   -6.713201
 ---------------------------------------------------------------------
                    Distance matrix (angstroms):
                    1          2          3          4          5
     1  C    0.000000
     2  C    1.390616   0.000000
     3  C    2.423664   1.392092   0.000000
     4  C    2.728978   2.358330   1.380247   0.000000
     5  C    2.382333   2.764892   2.434443   1.386209   0.000000
     6  C    1.393867   2.422800   2.827287   2.391658   1.379893
     7  H    1.081703   2.140833   3.396152   3.810611   3.364491
     8  H    2.142528   1.081607   2.139771   3.344383   3.846384
     9  H    2.156727   3.404504   3.910294   3.381743   2.149068
    10  H    3.406905   2.159641   1.081135   2.160434   3.418391
    11  C    3.844883   4.245916   3.681582   2.351034   1.505162
    12  C    4.628491   4.580132   3.584397   2.251231   2.334097
    13  N    4.131342   3.723502   2.517785   1.418670   2.276778
    14  C    4.536000   5.113032   4.696631   3.463644   2.526422
    15  H    4.553284   4.975393   4.516970   3.417449   2.757036
    16  H    5.589385   6.125336   5.592548   4.285342   3.462790
    17  H    4.390736   5.235424   5.102942   3.997351   2.799705
    18  C    4.527502   5.087022   4.655534   3.421074   2.513661
    19  H    4.563988   4.953173   4.463616   3.361272   2.758041
    20  H    4.348999   5.176127   5.034687   3.935551   2.764602
    21  H    5.581015   6.113521   5.578254   4.272614   3.460430
    22  C    6.049172   5.987729   4.917184   3.637695   3.719884
    23  C    7.269509   6.869335   5.634643   4.712706   5.259541
    24  C    6.506144   6.087735   4.959361   4.190473   4.761035
    25  O    5.416237   5.152438   4.172565   3.325836   3.706627
    26  C    7.361086   6.800264   5.712596   5.219616   5.916292
    27  C    8.613209   7.972265   6.807411   6.340910   7.113127
    28  C    9.166610   8.555418   7.292295   6.671824   7.420423
    29  C    8.580440   8.078699   6.792175   5.981385   6.623504
    30  C    5.163162   4.418477   3.038271   2.504721   3.653759
    31  H    6.074023   5.423569   4.062846   3.368183   4.326618
    32  H    5.450749   4.615286   3.260654   2.936346   4.118039
    33  H    5.049244   4.132556   2.784526   2.660136   3.933758
    34  C    7.047885   6.821162   5.631916   4.493648   4.810932
    35  H    6.494970   6.597327   5.634002   4.305314   4.129627
    36  H    8.031261   7.841029   6.650704   5.494386   5.741940
    37  H    9.270735   8.797174   7.485966   6.611970   7.209471
    38  H    9.326916   8.624654   7.509091   7.178635   7.992719
    39  H    7.110615   6.546794   5.607200   5.286038   5.957392
    40  N   10.551961   9.885059   8.594771   8.022413   8.811661
    41  O   11.160938  10.527200   9.197014   8.535457   9.285471
    42  O   11.180314  10.449967   9.200070   8.756322   9.597569
                    6          7          8          9         10
     6  C    0.000000
     7  H    2.145374   0.000000
     8  H    3.397195   2.457056   0.000000
     9  H    1.083034   2.479108   4.290253   0.000000
    10  H    3.908364   4.291517   2.479781   4.991360   0.000000
    11  C    2.631848   4.758159   5.325784   2.944085   4.505961
    12  C    3.703563   5.663124   5.592181   4.282642   4.089937
    13  N    3.580916   5.211951   4.636341   4.425421   2.841957
    14  C    3.270221   5.308706   6.164744   3.258817   5.530427
    15  H    3.489348   5.339052   5.965963   3.646043   5.263852
    16  H    4.296403   6.369747   7.186633   4.224452   6.352632
    17  H    3.077241   4.980766   6.257859   2.718582   6.046550
    18  C    3.273285   5.310736   6.140410   3.287726   5.487470
    19  H    3.518538   5.367979   5.946436   3.712811   5.203832
    20  H    3.051749   4.950259   6.198663   2.730121   5.977504
    21  H    4.292429   6.363979   7.176045   4.227762   6.341433
    22  C    5.062989   7.073521   6.979366   5.523362   5.275288
    23  C    6.571515   8.314164   7.687788   7.202804   5.615623
    24  C    5.936557   7.501071   6.850490   6.603908   4.966300
    25  O    4.798021   6.380280   5.979879   5.426483   4.405908
    26  C    6.979000   8.303664   7.408586   7.690626   5.531765
    27  C    8.238323   9.577615   8.538910   8.967390   6.497101
    28  C    8.666823  10.187371   9.198342   9.372192   6.993655
    29  C    7.940379   9.630663   8.828950   8.594147   6.619162
    30  C    4.868960   6.231909   5.120573   5.790959   2.813114
    31  H    5.628065   7.150719   6.156941   6.464387   3.863875
    32  H    5.262251   6.492256   5.222731   6.204990   2.881198
    33  H    4.984618   6.072629   4.690585   5.972405   2.335868
    34  C    6.168524   8.094852   7.742651   6.693450   5.786447
    35  H    5.382390   7.467980   7.623864   5.677721   6.084594
    36  H    7.092513   9.071303   8.770932   7.548185   6.789641
    37  H    8.564793  10.335539   9.574690   9.183534   7.319781
    38  H    9.051386  10.251677   9.098559   9.798075   7.120616
    39  H    6.857372   7.974888   7.068380   7.566822   5.438845
    40  N   10.073964  11.577951  10.484653  10.788874   8.211136
    41  O   10.603401  12.213218  11.173114  11.289685   8.835403
    42  O   10.800809  12.174115  10.966015  11.543416   8.745713
                   11         12         13         14         15
    11  C    0.000000
    12  C    1.516118   0.000000
    13  N    2.321774   1.309997   0.000000
    14  C    1.533841   2.502560   3.430804   0.000000
    15  H    2.169933   2.719460   3.398230   1.088141   0.000000
    16  H    2.164874   2.778829   3.942665   1.090567   1.771096
    17  H    2.152479   3.441502   4.264156   1.090467   1.781493
    18  C    1.537483   2.508800   3.365101   2.526439   3.476173
    19  H    2.184855   2.731964   3.292738   3.483301   4.323272
    20  H    2.151422   3.442153   4.195706   2.773214   3.769039
    21  H    2.177180   2.818845   3.919969   2.742697   3.744501
    22  C    2.589127   1.427500   2.444178   3.137564   3.387668
    23  C    4.545113   3.225258   3.457367   4.693783   4.327205
    24  C    4.342398   3.256103   3.251120   4.316128   3.656915
    25  O    3.401533   2.636732   2.684342   3.287302   2.535314
    26  C    5.687160   4.647114   4.431659   5.577720   4.772828
    27  C    6.793876   5.609323   5.404302   6.736599   6.000831
    28  C    6.888901   5.566457   5.513189   6.936704   6.379792
    29  C    5.915319   4.552344   4.693851   6.051975   5.670717
    30  C    3.738354   2.471187   1.448732   4.764745   4.603220
    31  H    4.065604   2.619596   2.075368   5.060208   5.003010
    32  H    4.281210   3.055364   2.087010   5.046419   4.648264
    33  H    4.300677   3.235289   2.068064   5.497199   5.401422
    34  C    3.810373   2.517701   3.163947   4.106982   4.080698
    35  H    2.795947   2.111452   3.261857   3.298102   3.829873
    36  H    4.614424   3.422724   4.150956   4.850139   4.931944
    37  H    6.373764   4.991960   5.245469   6.579996   6.345215
    38  H    7.770016   6.623856   6.336418   7.671354   6.868374
    39  H    5.935199   5.091595   4.770082   5.731171   4.801703
    40  N    8.252113   6.890174   6.828245   8.317010   7.788266
    41  O    8.597340   7.197825   7.241797   8.729133   8.330576
    42  O    9.151769   7.825301   7.660286   9.162835   8.533525
                   16         17         18         19         20
    16  H    0.000000
    17  H    1.772681   0.000000
    18  C    2.752221   2.757642   0.000000
    19  H    3.746869   3.768817   1.090179   0.000000
    20  H    3.118873   2.556869   1.090043   1.769876   0.000000
    21  H    2.517873   3.066158   1.089897   1.777063   1.765227
    22  C    2.887745   4.156834   3.145217   3.391985   4.170044
    23  C    4.511701   5.778703   5.543836   5.791702   6.497219
    24  C    4.399157   5.330427   5.636845   5.987422   6.454349
    25  O    3.590458   4.235723   4.830940   5.281355   5.527167
    26  C    5.704737   6.526392   7.041535   7.374234   7.821710
    27  C    6.733454   7.729003   8.047961   8.314724   8.903198
    28  C    6.760771   7.993206   7.951325   8.151381   8.897148
    29  C    5.779774   7.135232   6.827180   7.008975   7.813334
    30  C    5.152536   5.663514   4.654145   4.410745   5.554372
    31  H    5.229032   6.031941   4.776460   4.500345   5.783732
    32  H    5.459209   5.965349   5.415342   5.316516   6.268303
    33  H    5.978976   6.294044   5.054356   4.610991   5.886568
    34  C    3.758357   5.181517   4.498371   4.725142   5.507301
    35  H    2.816428   4.181965   2.818958   3.094137   3.827639
    36  H    4.304476   5.885175   5.050073   5.250942   6.064935
    37  H    6.182684   7.663042   7.081772   7.199603   8.108534
    38  H    7.706442   8.627295   9.067815   9.334328   9.897260
    39  H    6.006304   6.571579   7.388642   7.765201   8.064118
    40  N    8.072300   9.379374   9.236583   9.387680  10.213190
    41  O    8.374282   9.807393   9.414629   9.512339  10.432451
    42  O    8.983965  10.199679  10.230477  10.397665  11.177696
                   21         22         23         24         25
    21  H    0.000000
    22  C    2.937601   0.000000
    23  C    5.427863   2.548618   0.000000
    24  C    5.730793   3.165024   1.460336   0.000000
    25  O    5.065366   3.000148   2.381476   1.246302   0.000000
    26  C    7.171887   4.590082   2.465843   1.449149   2.348731
    27  C    8.078663   5.299302   2.825470   2.463382   3.586885
    28  C    7.835983   4.938070   2.416573   2.836560   4.082144
    29  C    6.626579   3.723323   1.396639   2.470159   3.620618
    30  C    5.091572   3.032148   3.183973   3.162328   3.108287
    31  H    5.001456   2.648992   2.770285   3.247218   3.475660
    32  H    5.840080   3.555430   2.936454   2.573942   2.681816
    33  H    5.615172   3.926999   4.234883   4.191549   4.082674
    34  C    4.222833   1.357928   1.435758   2.545517   2.927364
    35  H    2.278823   1.084560   3.457096   4.181117   3.975358
    36  H    4.569000   2.059876   2.122533   3.439675   3.944968
    37  H    6.756001   3.940687   2.150099   3.454184   4.517323
    38  H    9.130014   6.372845   3.905765   3.448801   4.475047
    39  H    7.628804   5.279066   3.436231   2.160233   2.575422
    40  N    9.056266   6.149314   3.722945   4.273036   5.518440
    41  O    9.128010   6.274435   4.103254   4.979467   6.206925
    42  O   10.108747   7.202402   4.699102   4.968998   6.185316
                   26         27         28         29         30
    26  C    0.000000
    27  C    1.357303   0.000000
    28  C    2.393038   1.412483   0.000000
    29  C    2.786561   2.425156   1.376183   0.000000
    30  C    4.072480   4.783519   4.799903   4.113990   0.000000
    31  H    4.222610   4.704192   4.402305   3.527437   1.085288
    32  H    3.191192   3.924502   4.173088   3.767266   1.090331
    33  H    4.966121   5.624865   5.664390   5.054353   1.087830
    34  C    3.814779   4.258221   3.696435   2.415519   3.225949
    35  H    5.602108   6.258950   5.782285   4.489722   3.946232
    36  H    4.559600   4.755807   3.913712   2.548579   4.131082
    37  H    3.868252   3.398567   2.123063   1.082305   4.643796
    38  H    2.129904   1.080892   2.156474   3.392693   5.657400
    39  H    1.082333   2.126428   3.385603   3.868609   4.536280
    40  N    3.700972   2.463075   1.436508   2.430003   5.987426
    41  O    4.682375   3.563894   2.291029   2.706995   6.390254
    42  O    4.074490   2.718813   2.284108   3.523850   6.778679
                   31         32         33         34         35
    31  H    0.000000
    32  H    1.778494   0.000000
    33  H    1.779664   1.783307   0.000000
    34  C    2.618467   3.450706   4.229910   0.000000
    35  H    3.485652   4.584508   4.723131   2.086885   0.000000
    36  H    3.345155   4.403649   5.064125   1.086815   2.304354
    37  H    3.850994   4.492738   5.519567   2.609207   4.505450
    38  H    5.642146   4.718365   6.412154   5.337629   7.338338
    39  H    4.904543   3.576036   5.334811   4.690330   6.300550
    40  N    5.482637   5.392282   6.757860   4.842300   6.903813
    41  O    5.704080   5.974008   7.136067   4.936925   6.886130
    42  O    6.398752   6.050488   7.491851   5.930299   8.011364
                   36         37         38         39         40
    36  H    0.000000
    37  H    2.296284   0.000000
    38  H    5.804519   4.272122   0.000000
    39  H    5.513678   4.950343   2.474926   0.000000
    40  N    4.818930   2.625294   2.667092   4.586326   0.000000
    41  O    4.657886   2.382138   3.881401   5.648227   1.221204
    42  O    5.989523   3.838207   2.408966   4.753039   1.220678
                   41         42
    41  O    0.000000
    42  O    2.144083   0.000000
 Stoichiometry    C19H18N2O3
 Framework group  C1[X(C19H18N2O3)]
 Deg. of freedom   120
 Full point group                 C1      NOp   1
 RotChk:  IX=0 Diff= 1.65D-15
 Largest Abelian subgroup         C1      NOp   1
 Largest concise Abelian subgroup C1      NOp   1
                         Standard orientation:                         
 ---------------------------------------------------------------------
 Center     Atomic      Atomic             Coordinates (Angstroms)
 Number     Number       Type             X           Y           Z
 ---------------------------------------------------------------------
      1          6           0        5.043171   -1.677109    0.267185
      2          6           0        4.213385   -2.533961   -0.447709
      3          6           0        2.960911   -2.119099   -0.891688
      4          6           0        2.594004   -0.824850   -0.582849
      5          6           0        3.401079    0.043828    0.135207
      6          6           0        4.643417   -0.375474    0.565191
      7          1           0        6.010290   -2.028663    0.600610
      8          1           0        4.542078   -3.542175   -0.660641
      9          1           0        5.292671    0.285376    1.126181
     10          1           0        2.311014   -2.788661   -1.437740
     11          6           0        2.681487    1.356883    0.288788
     12          6           0        1.366681    1.053775   -0.402605
     13          7           0        1.393041   -0.149275   -0.920357
     14          6           0        2.437252    1.723133    1.758100
     15          1           0        1.889098    0.930482    2.263354
     16          1           0        1.858563    2.645320    1.821564
     17          1           0        3.397792    1.877794    2.250604
     18          6           0        3.422559    2.491204   -0.437835
     19          1           0        3.559489    2.262863   -1.495001
     20          1           0        4.403949    2.617517    0.019453
     21          1           0        2.879697    3.431368   -0.341559
     22          6           0        0.315799    2.010706   -0.535599
     23          6           0       -1.812650    0.728706    0.031529
     24          6           0       -1.281987   -0.300653    0.921135
     25          8           0       -0.096769   -0.321534    1.305960
     26          6           0       -2.227408   -1.308586    1.357351
     27          6           0       -3.532027   -1.301531    0.982929
     28          6           0       -4.012981   -0.262768    0.155424
     29          6           0       -3.172917    0.734291   -0.285084
     30          6           0        0.369843   -0.774227   -1.733578
     31          1           0       -0.271981   -0.004923   -2.150812
     32          1           0       -0.223005   -1.454474   -1.121518
     33          1           0        0.857269   -1.325812   -2.534543
     34          6           0       -1.027279    1.832236   -0.444722
     35          1           0        0.666916    3.023242   -0.702206
     36          1           0       -1.615146    2.703972   -0.719778
     37          1           0       -3.577723    1.525876   -0.902261
     38          1           0       -4.216365   -2.069355    1.315276
     39          1           0       -1.839681   -2.083829    2.005510
     40          7           0       -5.398811   -0.238503   -0.221989
     41          8           0       -5.801893    0.673224   -0.927409
     42          8           0       -6.123661   -1.135502    0.178062
 ---------------------------------------------------------------------
 Rotational constants (GHZ):           0.6027800           0.1255655           0.1155364
 Leave Link  202 at Sun Mar 10 13:15:41 2024, MaxMem=  2684354560 cpu:               0.7 elap:               0.0
 (Enter /s/ls4/groups/g0130/bin/g16/l301.exe)
 Standard basis: def2TZVP (5D, 7F)
 Ernie: Thresh=  0.10000D-02 Tol=  0.10000D-05 Strict=F.
 AO basis set in the form of general basis input (Overlap normalization):
      1 0
 S   6 1.00       0.000000000000
      0.1357534968D+05  0.6064550360D-03
      0.2035233368D+04  0.4697908888D-02
      0.4632256236D+03  0.2433247765D-01
      0.1312001960D+03  0.9739996831D-01
      0.4285301589D+02  0.3019558425D+00
      0.1558418577D+02  0.6623360914D+00
 S   2 1.00       0.000000000000
      0.6206713851D+01  0.6559530854D+00
      0.2576489653D+01  0.3758563329D+00
 S   1 1.00       0.000000000000
      0.5769633942D+00  0.1000000000D+01
 S   1 1.00       0.000000000000
      0.2297283136D+00  0.1000000000D+01
 S   1 1.00       0.000000000000
      0.9516444003D-01  0.1000000000D+01
 P   4 1.00       0.000000000000
      0.3469723224D+02  0.1132722000D-01
      0.7958262283D+01  0.7616965920D-01
      0.2378082688D+01  0.3019225220D+00
      0.8143320818D+00  0.7278502735D+00
 P   1 1.00       0.000000000000
      0.2888754725D+00  0.1000000000D+01
 P   1 1.00       0.000000000000
      0.1005682367D+00  0.1000000000D+01
 D   1 1.00       0.000000000000
      0.1097000000D+01  0.1000000000D+01
 D   1 1.00       0.000000000000
      0.3180000000D+00  0.1000000000D+01
 F   1 1.00       0.000000000000
      0.7610000000D+00  0.1000000000D+01
 ****
      2 0
 S   6 1.00       0.000000000000
      0.1357534968D+05  0.6064550360D-03
      0.2035233368D+04  0.4697908888D-02
      0.4632256236D+03  0.2433247765D-01
      0.1312001960D+03  0.9739996831D-01
      0.4285301589D+02  0.3019558425D+00
      0.1558418577D+02  0.6623360914D+00
 S   2 1.00       0.000000000000
      0.6206713851D+01  0.6559530854D+00
      0.2576489653D+01  0.3758563329D+00
 S   1 1.00       0.000000000000
      0.5769633942D+00  0.1000000000D+01
 S   1 1.00       0.000000000000
      0.2297283136D+00  0.1000000000D+01
 S   1 1.00       0.000000000000
      0.9516444003D-01  0.1000000000D+01
 P   4 1.00       0.000000000000
      0.3469723224D+02  0.1132722000D-01
      0.7958262283D+01  0.7616965920D-01
      0.2378082688D+01  0.3019225220D+00
      0.8143320818D+00  0.7278502735D+00
 P   1 1.00       0.000000000000
      0.2888754725D+00  0.1000000000D+01
 P   1 1.00       0.000000000000
      0.1005682367D+00  0.1000000000D+01
 D   1 1.00       0.000000000000
      0.1097000000D+01  0.1000000000D+01
 D   1 1.00       0.000000000000
      0.3180000000D+00  0.1000000000D+01
 F   1 1.00       0.000000000000
      0.7610000000D+00  0.1000000000D+01
 ****
      3 0
 S   6 1.00       0.000000000000
      0.1357534968D+05  0.6064550360D-03
      0.2035233368D+04  0.4697908888D-02
      0.4632256236D+03  0.2433247765D-01
      0.1312001960D+03  0.9739996831D-01
      0.4285301589D+02  0.3019558425D+00
      0.1558418577D+02  0.6623360914D+00
 S   2 1.00       0.000000000000
      0.6206713851D+01  0.6559530854D+00
      0.2576489653D+01  0.3758563329D+00
 S   1 1.00       0.000000000000
      0.5769633942D+00  0.1000000000D+01
 S   1 1.00       0.000000000000
      0.2297283136D+00  0.1000000000D+01
 S   1 1.00       0.000000000000
      0.9516444003D-01  0.1000000000D+01
 P   4 1.00       0.000000000000
      0.3469723224D+02  0.1132722000D-01
      0.7958262283D+01  0.7616965920D-01
      0.2378082688D+01  0.3019225220D+00
      0.8143320818D+00  0.7278502735D+00
 P   1 1.00       0.000000000000
      0.2888754725D+00  0.1000000000D+01
 P   1 1.00       0.000000000000
      0.1005682367D+00  0.1000000000D+01
 D   1 1.00       0.000000000000
      0.1097000000D+01  0.1000000000D+01
 D   1 1.00       0.000000000000
      0.3180000000D+00  0.1000000000D+01
 F   1 1.00       0.000000000000
      0.7610000000D+00  0.1000000000D+01
 ****
      4 0
 S   6 1.00       0.000000000000
      0.1357534968D+05  0.6064550360D-03
      0.2035233368D+04  0.4697908888D-02
      0.4632256236D+03  0.2433247765D-01
      0.1312001960D+03  0.9739996831D-01
      0.4285301589D+02  0.3019558425D+00
      0.1558418577D+02  0.6623360914D+00
 S   2 1.00       0.000000000000
      0.6206713851D+01  0.6559530854D+00
      0.2576489653D+01  0.3758563329D+00
 S   1 1.00       0.000000000000
      0.5769633942D+00  0.1000000000D+01
 S   1 1.00       0.000000000000
      0.2297283136D+00  0.1000000000D+01
 S   1 1.00       0.000000000000
      0.9516444003D-01  0.1000000000D+01
 P   4 1.00       0.000000000000
      0.3469723224D+02  0.1132722000D-01
      0.7958262283D+01  0.7616965920D-01
      0.2378082688D+01  0.3019225220D+00
      0.8143320818D+00  0.7278502735D+00
 P   1 1.00       0.000000000000
      0.2888754725D+00  0.1000000000D+01
 P   1 1.00       0.000000000000
      0.1005682367D+00  0.1000000000D+01
 D   1 1.00       0.000000000000
      0.1097000000D+01  0.1000000000D+01
 D   1 1.00       0.000000000000
      0.3180000000D+00  0.1000000000D+01
 F   1 1.00       0.000000000000
      0.7610000000D+00  0.1000000000D+01
 ****
      5 0
 S   6 1.00       0.000000000000
      0.1357534968D+05  0.6064550360D-03
      0.2035233368D+04  0.4697908888D-02
      0.4632256236D+03  0.2433247765D-01
      0.1312001960D+03  0.9739996831D-01
      0.4285301589D+02  0.3019558425D+00
      0.1558418577D+02  0.6623360914D+00
 S   2 1.00       0.000000000000
      0.6206713851D+01  0.6559530854D+00
      0.2576489653D+01  0.3758563329D+00
 S   1 1.00       0.000000000000
      0.5769633942D+00  0.1000000000D+01
 S   1 1.00       0.000000000000
      0.2297283136D+00  0.1000000000D+01
 S   1 1.00       0.000000000000
      0.9516444003D-01  0.1000000000D+01
 P   4 1.00       0.000000000000
      0.3469723224D+02  0.1132722000D-01
      0.7958262283D+01  0.7616965920D-01
      0.2378082688D+01  0.3019225220D+00
      0.8143320818D+00  0.7278502735D+00
 P   1 1.00       0.000000000000
      0.2888754725D+00  0.1000000000D+01
 P   1 1.00       0.000000000000
      0.1005682367D+00  0.1000000000D+01
 D   1 1.00       0.000000000000
      0.1097000000D+01  0.1000000000D+01
 D   1 1.00       0.000000000000
      0.3180000000D+00  0.1000000000D+01
 F   1 1.00       0.000000000000
      0.7610000000D+00  0.1000000000D+01
 ****
      6 0
 S   6 1.00       0.000000000000
      0.1357534968D+05  0.6064550360D-03
      0.2035233368D+04  0.4697908888D-02
      0.4632256236D+03  0.2433247765D-01
      0.1312001960D+03  0.9739996831D-01
      0.4285301589D+02  0.3019558425D+00
      0.1558418577D+02  0.6623360914D+00
 S   2 1.00       0.000000000000
      0.6206713851D+01  0.6559530854D+00
      0.2576489653D+01  0.3758563329D+00
 S   1 1.00       0.000000000000
      0.5769633942D+00  0.1000000000D+01
 S   1 1.00       0.000000000000
      0.2297283136D+00  0.1000000000D+01
 S   1 1.00       0.000000000000
      0.9516444003D-01  0.1000000000D+01
 P   4 1.00       0.000000000000
      0.3469723224D+02  0.1132722000D-01
      0.7958262283D+01  0.7616965920D-01
      0.2378082688D+01  0.3019225220D+00
      0.8143320818D+00  0.7278502735D+00
 P   1 1.00       0.000000000000
      0.2888754725D+00  0.1000000000D+01
 P   1 1.00       0.000000000000
      0.1005682367D+00  0.1000000000D+01
 D   1 1.00       0.000000000000
      0.1097000000D+01  0.1000000000D+01
 D   1 1.00       0.000000000000
      0.3180000000D+00  0.1000000000D+01
 F   1 1.00       0.000000000000
      0.7610000000D+00  0.1000000000D+01
 ****
      7 0
 S   3 1.00       0.000000000000
      0.3406134100D+02  0.2543930721D-01
      0.5123574600D+01  0.1900859489D+00
      0.1164662600D+01  0.8524411301D+00
 S   1 1.00       0.000000000000
      0.3272304100D+00  0.1000000000D+01
 S   1 1.00       0.000000000000
      0.1030724100D+00  0.1000000000D+01
 P   1 1.00       0.000000000000
      0.8000000000D+00  0.1000000000D+01
 ****
      8 0
 S   3 1.00       0.000000000000
      0.3406134100D+02  0.2543930721D-01
      0.5123574600D+01  0.1900859489D+00
      0.1164662600D+01  0.8524411301D+00
 S   1 1.00       0.000000000000
      0.3272304100D+00  0.1000000000D+01
 S   1 1.00       0.000000000000
      0.1030724100D+00  0.1000000000D+01
 P   1 1.00       0.000000000000
      0.8000000000D+00  0.1000000000D+01
 ****
      9 0
 S   3 1.00       0.000000000000
      0.3406134100D+02  0.2543930721D-01
      0.5123574600D+01  0.1900859489D+00
      0.1164662600D+01  0.8524411301D+00
 S   1 1.00       0.000000000000
      0.3272304100D+00  0.1000000000D+01
 S   1 1.00       0.000000000000
      0.1030724100D+00  0.1000000000D+01
 P   1 1.00       0.000000000000
      0.8000000000D+00  0.1000000000D+01
 ****
     10 0
 S   3 1.00       0.000000000000
      0.3406134100D+02  0.2543930721D-01
      0.5123574600D+01  0.1900859489D+00
      0.1164662600D+01  0.8524411301D+00
 S   1 1.00       0.000000000000
      0.3272304100D+00  0.1000000000D+01
 S   1 1.00       0.000000000000
      0.1030724100D+00  0.1000000000D+01
 P   1 1.00       0.000000000000
      0.8000000000D+00  0.1000000000D+01
 ****
     11 0
 S   6 1.00       0.000000000000
      0.1357534968D+05  0.6064550360D-03
      0.2035233368D+04  0.4697908888D-02
      0.4632256236D+03  0.2433247765D-01
      0.1312001960D+03  0.9739996831D-01
      0.4285301589D+02  0.3019558425D+00
      0.1558418577D+02  0.6623360914D+00
 S   2 1.00       0.000000000000
      0.6206713851D+01  0.6559530854D+00
      0.2576489653D+01  0.3758563329D+00
 S   1 1.00       0.000000000000
      0.5769633942D+00  0.1000000000D+01
 S   1 1.00       0.000000000000
      0.2297283136D+00  0.1000000000D+01
 S   1 1.00       0.000000000000
      0.9516444003D-01  0.1000000000D+01
 P   4 1.00       0.000000000000
      0.3469723224D+02  0.1132722000D-01
      0.7958262283D+01  0.7616965920D-01
      0.2378082688D+01  0.3019225220D+00
      0.8143320818D+00  0.7278502735D+00
 P   1 1.00       0.000000000000
      0.2888754725D+00  0.1000000000D+01
 P   1 1.00       0.000000000000
      0.1005682367D+00  0.1000000000D+01
 D   1 1.00       0.000000000000
      0.1097000000D+01  0.1000000000D+01
 D   1 1.00       0.000000000000
      0.3180000000D+00  0.1000000000D+01
 F   1 1.00       0.000000000000
      0.7610000000D+00  0.1000000000D+01
 ****
     12 0
 S   6 1.00       0.000000000000
      0.1357534968D+05  0.6064550360D-03
      0.2035233368D+04  0.4697908888D-02
      0.4632256236D+03  0.2433247765D-01
      0.1312001960D+03  0.9739996831D-01
      0.4285301589D+02  0.3019558425D+00
      0.1558418577D+02  0.6623360914D+00
 S   2 1.00       0.000000000000
      0.6206713851D+01  0.6559530854D+00
      0.2576489653D+01  0.3758563329D+00
 S   1 1.00       0.000000000000
      0.5769633942D+00  0.1000000000D+01
 S   1 1.00       0.000000000000
      0.2297283136D+00  0.1000000000D+01
 S   1 1.00       0.000000000000
      0.9516444003D-01  0.1000000000D+01
 P   4 1.00       0.000000000000
      0.3469723224D+02  0.1132722000D-01
      0.7958262283D+01  0.7616965920D-01
      0.2378082688D+01  0.3019225220D+00
      0.8143320818D+00  0.7278502735D+00
 P   1 1.00       0.000000000000
      0.2888754725D+00  0.1000000000D+01
 P   1 1.00       0.000000000000
      0.1005682367D+00  0.1000000000D+01
 D   1 1.00       0.000000000000
      0.1097000000D+01  0.1000000000D+01
 D   1 1.00       0.000000000000
      0.3180000000D+00  0.1000000000D+01
 F   1 1.00       0.000000000000
      0.7610000000D+00  0.1000000000D+01
 ****
     13 0
 S   6 1.00       0.000000000000
      0.1973080065D+05  0.5862640263D-03
      0.2957895874D+04  0.4542882059D-02
      0.6732213360D+03  0.2355841345D-01
      0.1906824949D+03  0.9470919329D-01
      0.6229544190D+02  0.2971978491D+00
      0.2265416118D+02  0.6691624690D+00
 S   2 1.00       0.000000000000
      0.8979147743D+01  0.6459668363D+00
      0.3686300237D+01  0.3870057439D+00
 S   1 1.00       0.000000000000
      0.8466007680D+00  0.1000000000D+01
 S   1 1.00       0.000000000000
      0.3364713377D+00  0.1000000000D+01
 S   1 1.00       0.000000000000
      0.1364765367D+00  0.1000000000D+01
 P   4 1.00       0.000000000000
      0.4920038051D+02  0.1144882510D-01
      0.1134679054D+02  0.7842233797D-01
      0.3427397241D+01  0.3081809474D+00
      0.1178552513D+01  0.7202719637D+00
 P   1 1.00       0.000000000000
      0.4164220497D+00  0.1000000000D+01
 P   1 1.00       0.000000000000
      0.1426082601D+00  0.1000000000D+01
 D   1 1.00       0.000000000000
      0.1654000000D+01  0.1000000000D+01
 D   1 1.00       0.000000000000
      0.4690000000D+00  0.1000000000D+01
 F   1 1.00       0.000000000000
      0.1093000000D+01  0.1000000000D+01
 ****
     14 0
 S   6 1.00       0.000000000000
      0.1357534968D+05  0.6064550360D-03
      0.2035233368D+04  0.4697908888D-02
      0.4632256236D+03  0.2433247765D-01
      0.1312001960D+03  0.9739996831D-01
      0.4285301589D+02  0.3019558425D+00
      0.1558418577D+02  0.6623360914D+00
 S   2 1.00       0.000000000000
      0.6206713851D+01  0.6559530854D+00
      0.2576489653D+01  0.3758563329D+00
 S   1 1.00       0.000000000000
      0.5769633942D+00  0.1000000000D+01
 S   1 1.00       0.000000000000
      0.2297283136D+00  0.1000000000D+01
 S   1 1.00       0.000000000000
      0.9516444003D-01  0.1000000000D+01
 P   4 1.00       0.000000000000
      0.3469723224D+02  0.1132722000D-01
      0.7958262283D+01  0.7616965920D-01
      0.2378082688D+01  0.3019225220D+00
      0.8143320818D+00  0.7278502735D+00
 P   1 1.00       0.000000000000
      0.2888754725D+00  0.1000000000D+01
 P   1 1.00       0.000000000000
      0.1005682367D+00  0.1000000000D+01
 D   1 1.00       0.000000000000
      0.1097000000D+01  0.1000000000D+01
 D   1 1.00       0.000000000000
      0.3180000000D+00  0.1000000000D+01
 F   1 1.00       0.000000000000
      0.7610000000D+00  0.1000000000D+01
 ****
     15 0
 S   3 1.00       0.000000000000
      0.3406134100D+02  0.2543930721D-01
      0.5123574600D+01  0.1900859489D+00
      0.1164662600D+01  0.8524411301D+00
 S   1 1.00       0.000000000000
      0.3272304100D+00  0.1000000000D+01
 S   1 1.00       0.000000000000
      0.1030724100D+00  0.1000000000D+01
 P   1 1.00       0.000000000000
      0.8000000000D+00  0.1000000000D+01
 ****
     16 0
 S   3 1.00       0.000000000000
      0.3406134100D+02  0.2543930721D-01
      0.5123574600D+01  0.1900859489D+00
      0.1164662600D+01  0.8524411301D+00
 S   1 1.00       0.000000000000
      0.3272304100D+00  0.1000000000D+01
 S   1 1.00       0.000000000000
      0.1030724100D+00  0.1000000000D+01
 P   1 1.00       0.000000000000
      0.8000000000D+00  0.1000000000D+01
 ****
     17 0
 S   3 1.00       0.000000000000
      0.3406134100D+02  0.2543930721D-01
      0.5123574600D+01  0.1900859489D+00
      0.1164662600D+01  0.8524411301D+00
 S   1 1.00       0.000000000000
      0.3272304100D+00  0.1000000000D+01
 S   1 1.00       0.000000000000
      0.1030724100D+00  0.1000000000D+01
 P   1 1.00       0.000000000000
      0.8000000000D+00  0.1000000000D+01
 ****
     18 0
 S   6 1.00       0.000000000000
      0.1357534968D+05  0.6064550360D-03
      0.2035233368D+04  0.4697908888D-02
      0.4632256236D+03  0.2433247765D-01
      0.1312001960D+03  0.9739996831D-01
      0.4285301589D+02  0.3019558425D+00
      0.1558418577D+02  0.6623360914D+00
 S   2 1.00       0.000000000000
      0.6206713851D+01  0.6559530854D+00
      0.2576489653D+01  0.3758563329D+00
 S   1 1.00       0.000000000000
      0.5769633942D+00  0.1000000000D+01
 S   1 1.00       0.000000000000
      0.2297283136D+00  0.1000000000D+01
 S   1 1.00       0.000000000000
      0.9516444003D-01  0.1000000000D+01
 P   4 1.00       0.000000000000
      0.3469723224D+02  0.1132722000D-01
      0.7958262283D+01  0.7616965920D-01
      0.2378082688D+01  0.3019225220D+00
      0.8143320818D+00  0.7278502735D+00
 P   1 1.00       0.000000000000
      0.2888754725D+00  0.1000000000D+01
 P   1 1.00       0.000000000000
      0.1005682367D+00  0.1000000000D+01
 D   1 1.00       0.000000000000
      0.1097000000D+01  0.1000000000D+01
 D   1 1.00       0.000000000000
      0.3180000000D+00  0.1000000000D+01
 F   1 1.00       0.000000000000
      0.7610000000D+00  0.1000000000D+01
 ****
     19 0
 S   3 1.00       0.000000000000
      0.3406134100D+02  0.2543930721D-01
      0.5123574600D+01  0.1900859489D+00
      0.1164662600D+01  0.8524411301D+00
 S   1 1.00       0.000000000000
      0.3272304100D+00  0.1000000000D+01
 S   1 1.00       0.000000000000
      0.1030724100D+00  0.1000000000D+01
 P   1 1.00       0.000000000000
      0.8000000000D+00  0.1000000000D+01
 ****
     20 0
 S   3 1.00       0.000000000000
      0.3406134100D+02  0.2543930721D-01
      0.5123574600D+01  0.1900859489D+00
      0.1164662600D+01  0.8524411301D+00
 S   1 1.00       0.000000000000
      0.3272304100D+00  0.1000000000D+01
 S   1 1.00       0.000000000000
      0.1030724100D+00  0.1000000000D+01
 P   1 1.00       0.000000000000
      0.8000000000D+00  0.1000000000D+01
 ****
     21 0
 S   3 1.00       0.000000000000
      0.3406134100D+02  0.2543930721D-01
      0.5123574600D+01  0.1900859489D+00
      0.1164662600D+01  0.8524411301D+00
 S   1 1.00       0.000000000000
      0.3272304100D+00  0.1000000000D+01
 S   1 1.00       0.000000000000
      0.1030724100D+00  0.1000000000D+01
 P   1 1.00       0.000000000000
      0.8000000000D+00  0.1000000000D+01
 ****
     22 0
 S   6 1.00       0.000000000000
      0.1357534968D+05  0.6064550360D-03
      0.2035233368D+04  0.4697908888D-02
      0.4632256236D+03  0.2433247765D-01
      0.1312001960D+03  0.9739996831D-01
      0.4285301589D+02  0.3019558425D+00
      0.1558418577D+02  0.6623360914D+00
 S   2 1.00       0.000000000000
      0.6206713851D+01  0.6559530854D+00
      0.2576489653D+01  0.3758563329D+00
 S   1 1.00       0.000000000000
      0.5769633942D+00  0.1000000000D+01
 S   1 1.00       0.000000000000
      0.2297283136D+00  0.1000000000D+01
 S   1 1.00       0.000000000000
      0.9516444003D-01  0.1000000000D+01
 P   4 1.00       0.000000000000
      0.3469723224D+02  0.1132722000D-01
      0.7958262283D+01  0.7616965920D-01
      0.2378082688D+01  0.3019225220D+00
      0.8143320818D+00  0.7278502735D+00
 P   1 1.00       0.000000000000
      0.2888754725D+00  0.1000000000D+01
 P   1 1.00       0.000000000000
      0.1005682367D+00  0.1000000000D+01
 D   1 1.00       0.000000000000
      0.1097000000D+01  0.1000000000D+01
 D   1 1.00       0.000000000000
      0.3180000000D+00  0.1000000000D+01
 F   1 1.00       0.000000000000
      0.7610000000D+00  0.1000000000D+01
 ****
     23 0
 S   6 1.00       0.000000000000
      0.1357534968D+05  0.6064550360D-03
      0.2035233368D+04  0.4697908888D-02
      0.4632256236D+03  0.2433247765D-01
      0.1312001960D+03  0.9739996831D-01
      0.4285301589D+02  0.3019558425D+00
      0.1558418577D+02  0.6623360914D+00
 S   2 1.00       0.000000000000
      0.6206713851D+01  0.6559530854D+00
      0.2576489653D+01  0.3758563329D+00
 S   1 1.00       0.000000000000
      0.5769633942D+00  0.1000000000D+01
 S   1 1.00       0.000000000000
      0.2297283136D+00  0.1000000000D+01
 S   1 1.00       0.000000000000
      0.9516444003D-01  0.1000000000D+01
 P   4 1.00       0.000000000000
      0.3469723224D+02  0.1132722000D-01
      0.7958262283D+01  0.7616965920D-01
      0.2378082688D+01  0.3019225220D+00
      0.8143320818D+00  0.7278502735D+00
 P   1 1.00       0.000000000000
      0.2888754725D+00  0.1000000000D+01
 P   1 1.00       0.000000000000
      0.1005682367D+00  0.1000000000D+01
 D   1 1.00       0.000000000000
      0.1097000000D+01  0.1000000000D+01
 D   1 1.00       0.000000000000
      0.3180000000D+00  0.1000000000D+01
 F   1 1.00       0.000000000000
      0.7610000000D+00  0.1000000000D+01
 ****
     24 0
 S   6 1.00       0.000000000000
      0.1357534968D+05  0.6064550360D-03
      0.2035233368D+04  0.4697908888D-02
      0.4632256236D+03  0.2433247765D-01
      0.1312001960D+03  0.9739996831D-01
      0.4285301589D+02  0.3019558425D+00
      0.1558418577D+02  0.6623360914D+00
 S   2 1.00       0.000000000000
      0.6206713851D+01  0.6559530854D+00
      0.2576489653D+01  0.3758563329D+00
 S   1 1.00       0.000000000000
      0.5769633942D+00  0.1000000000D+01
 S   1 1.00       0.000000000000
      0.2297283136D+00  0.1000000000D+01
 S   1 1.00       0.000000000000
      0.9516444003D-01  0.1000000000D+01
 P   4 1.00       0.000000000000
      0.3469723224D+02  0.1132722000D-01
      0.7958262283D+01  0.7616965920D-01
      0.2378082688D+01  0.3019225220D+00
      0.8143320818D+00  0.7278502735D+00
 P   1 1.00       0.000000000000
      0.2888754725D+00  0.1000000000D+01
 P   1 1.00       0.000000000000
      0.1005682367D+00  0.1000000000D+01
 D   1 1.00       0.000000000000
      0.1097000000D+01  0.1000000000D+01
 D   1 1.00       0.000000000000
      0.3180000000D+00  0.1000000000D+01
 F   1 1.00       0.000000000000
      0.7610000000D+00  0.1000000000D+01
 ****
     25 0
 S   6 1.00       0.000000000000
      0.2703238263D+05  0.5722733521D-03
      0.4052387139D+04  0.4435323349D-02
      0.9223272271D+03  0.2302010771D-01
      0.2612407099D+03  0.9282249067D-01
      0.8535464135D+02  0.2937850001D+00
      0.3103503524D+02  0.6740160450D+00
 S   2 1.00       0.000000000000
      0.1226086073D+02  0.6383993703D+00
      0.4998707601D+01  0.3953458713D+00
 S   1 1.00       0.000000000000
      0.1170310816D+01  0.1000000000D+01
 S   1 1.00       0.000000000000
      0.4647474099D+00  0.1000000000D+01
 S   1 1.00       0.000000000000
      0.1850453636D+00  0.1000000000D+01
 P   4 1.00       0.000000000000
      0.6327495480D+02  0.1201833222D-01
      0.1462704938D+02  0.8300542179D-01
      0.4450122346D+01  0.3199174393D+00
      0.1527579965D+01  0.7071554292D+00
 P   1 1.00       0.000000000000
      0.5293511794D+00  0.1000000000D+01
 P   1 1.00       0.000000000000
      0.1747842127D+00  0.1000000000D+01
 D   1 1.00       0.000000000000
      0.2314000000D+01  0.1000000000D+01
 D   1 1.00       0.000000000000
      0.6450000000D+00  0.1000000000D+01
 F   1 1.00       0.000000000000
      0.1428000000D+01  0.1000000000D+01
 ****
     26 0
 S   6 1.00       0.000000000000
      0.1357534968D+05  0.6064550360D-03
      0.2035233368D+04  0.4697908888D-02
      0.4632256236D+03  0.2433247765D-01
      0.1312001960D+03  0.9739996831D-01
      0.4285301589D+02  0.3019558425D+00
      0.1558418577D+02  0.6623360914D+00
 S   2 1.00       0.000000000000
      0.6206713851D+01  0.6559530854D+00
      0.2576489653D+01  0.3758563329D+00
 S   1 1.00       0.000000000000
      0.5769633942D+00  0.1000000000D+01
 S   1 1.00       0.000000000000
      0.2297283136D+00  0.1000000000D+01
 S   1 1.00       0.000000000000
      0.9516444003D-01  0.1000000000D+01
 P   4 1.00       0.000000000000
      0.3469723224D+02  0.1132722000D-01
      0.7958262283D+01  0.7616965920D-01
      0.2378082688D+01  0.3019225220D+00
      0.8143320818D+00  0.7278502735D+00
 P   1 1.00       0.000000000000
      0.2888754725D+00  0.1000000000D+01
 P   1 1.00       0.000000000000
      0.1005682367D+00  0.1000000000D+01
 D   1 1.00       0.000000000000
      0.1097000000D+01  0.1000000000D+01
 D   1 1.00       0.000000000000
      0.3180000000D+00  0.1000000000D+01
 F   1 1.00       0.000000000000
      0.7610000000D+00  0.1000000000D+01
 ****
     27 0
 S   6 1.00       0.000000000000
      0.1357534968D+05  0.6064550360D-03
      0.2035233368D+04  0.4697908888D-02
      0.4632256236D+03  0.2433247765D-01
      0.1312001960D+03  0.9739996831D-01
      0.4285301589D+02  0.3019558425D+00
      0.1558418577D+02  0.6623360914D+00
 S   2 1.00       0.000000000000
      0.6206713851D+01  0.6559530854D+00
      0.2576489653D+01  0.3758563329D+00
 S   1 1.00       0.000000000000
      0.5769633942D+00  0.1000000000D+01
 S   1 1.00       0.000000000000
      0.2297283136D+00  0.1000000000D+01
 S   1 1.00       0.000000000000
      0.9516444003D-01  0.1000000000D+01
 P   4 1.00       0.000000000000
      0.3469723224D+02  0.1132722000D-01
      0.7958262283D+01  0.7616965920D-01
      0.2378082688D+01  0.3019225220D+00
      0.8143320818D+00  0.7278502735D+00
 P   1 1.00       0.000000000000
      0.2888754725D+00  0.1000000000D+01
 P   1 1.00       0.000000000000
      0.1005682367D+00  0.1000000000D+01
 D   1 1.00       0.000000000000
      0.1097000000D+01  0.1000000000D+01
 D   1 1.00       0.000000000000
      0.3180000000D+00  0.1000000000D+01
 F   1 1.00       0.000000000000
      0.7610000000D+00  0.1000000000D+01
 ****
     28 0
 S   6 1.00       0.000000000000
      0.1357534968D+05  0.6064550360D-03
      0.2035233368D+04  0.4697908888D-02
      0.4632256236D+03  0.2433247765D-01
      0.1312001960D+03  0.9739996831D-01
      0.4285301589D+02  0.3019558425D+00
      0.1558418577D+02  0.6623360914D+00
 S   2 1.00       0.000000000000
      0.6206713851D+01  0.6559530854D+00
      0.2576489653D+01  0.3758563329D+00
 S   1 1.00       0.000000000000
      0.5769633942D+00  0.1000000000D+01
 S   1 1.00       0.000000000000
      0.2297283136D+00  0.1000000000D+01
 S   1 1.00       0.000000000000
      0.9516444003D-01  0.1000000000D+01
 P   4 1.00       0.000000000000
      0.3469723224D+02  0.1132722000D-01
      0.7958262283D+01  0.7616965920D-01
      0.2378082688D+01  0.3019225220D+00
      0.8143320818D+00  0.7278502735D+00
 P   1 1.00       0.000000000000
      0.2888754725D+00  0.1000000000D+01
 P   1 1.00       0.000000000000
      0.1005682367D+00  0.1000000000D+01
 D   1 1.00       0.000000000000
      0.1097000000D+01  0.1000000000D+01
 D   1 1.00       0.000000000000
      0.3180000000D+00  0.1000000000D+01
 F   1 1.00       0.000000000000
      0.7610000000D+00  0.1000000000D+01
 ****
     29 0
 S   6 1.00       0.000000000000
      0.1357534968D+05  0.6064550360D-03
      0.2035233368D+04  0.4697908888D-02
      0.4632256236D+03  0.2433247765D-01
      0.1312001960D+03  0.9739996831D-01
      0.4285301589D+02  0.3019558425D+00
      0.1558418577D+02  0.6623360914D+00
 S   2 1.00       0.000000000000
      0.6206713851D+01  0.6559530854D+00
      0.2576489653D+01  0.3758563329D+00
 S   1 1.00       0.000000000000
      0.5769633942D+00  0.1000000000D+01
 S   1 1.00       0.000000000000
      0.2297283136D+00  0.1000000000D+01
 S   1 1.00       0.000000000000
      0.9516444003D-01  0.1000000000D+01
 P   4 1.00       0.000000000000
      0.3469723224D+02  0.1132722000D-01
      0.7958262283D+01  0.7616965920D-01
      0.2378082688D+01  0.3019225220D+00
      0.8143320818D+00  0.7278502735D+00
 P   1 1.00       0.000000000000
      0.2888754725D+00  0.1000000000D+01
 P   1 1.00       0.000000000000
      0.1005682367D+00  0.1000000000D+01
 D   1 1.00       0.000000000000
      0.1097000000D+01  0.1000000000D+01
 D   1 1.00       0.000000000000
      0.3180000000D+00  0.1000000000D+01
 F   1 1.00       0.000000000000
      0.7610000000D+00  0.1000000000D+01
 ****
     30 0
 S   6 1.00       0.000000000000
      0.1357534968D+05  0.6064550360D-03
      0.2035233368D+04  0.4697908888D-02
      0.4632256236D+03  0.2433247765D-01
      0.1312001960D+03  0.9739996831D-01
      0.4285301589D+02  0.3019558425D+00
      0.1558418577D+02  0.6623360914D+00
 S   2 1.00       0.000000000000
      0.6206713851D+01  0.6559530854D+00
      0.2576489653D+01  0.3758563329D+00
 S   1 1.00       0.000000000000
      0.5769633942D+00  0.1000000000D+01
 S   1 1.00       0.000000000000
      0.2297283136D+00  0.1000000000D+01
 S   1 1.00       0.000000000000
      0.9516444003D-01  0.1000000000D+01
 P   4 1.00       0.000000000000
      0.3469723224D+02  0.1132722000D-01
      0.7958262283D+01  0.7616965920D-01
      0.2378082688D+01  0.3019225220D+00
      0.8143320818D+00  0.7278502735D+00
 P   1 1.00       0.000000000000
      0.2888754725D+00  0.1000000000D+01
 P   1 1.00       0.000000000000
      0.1005682367D+00  0.1000000000D+01
 D   1 1.00       0.000000000000
[...]
     8  H   -0.000003   0.000000   0.000000  -0.000001  -0.000000   0.000008
     9  H   -0.000076   0.000444  -0.000012  -0.000048  -0.000002   0.000001
    10  H    0.000023   0.000002  -0.000002  -0.000010  -0.000044  -0.000163
    11  C    0.006888  -0.028751  -0.040256  -0.064759   0.021327  -0.016555
    12  C   -0.019943   0.015595  -0.007591   0.192618  -0.102908   0.072012
    13  N   -0.000268  -0.000439   0.000860  -0.090476  -0.002706  -0.015448
    14  C    0.013186  -0.012017  -0.011459   0.003154  -0.007614   0.003820
    15  H   -0.000281   0.000047  -0.000200  -0.007550   0.002371  -0.002079
    16  H   -0.000220   0.000216   0.002221   0.010941   0.000895  -0.000403
    17  H   -0.000133   0.002116   0.000212  -0.000864  -0.000111   0.000111
    18  C    0.395208   0.417146   0.411830  -0.020507  -0.001867   0.000630
    19  H    0.499507  -0.020786  -0.020975   0.005185   0.000197  -0.000035
    20  H   -0.020786   0.487548  -0.020988  -0.000397  -0.000020  -0.000008
    21  H   -0.020975  -0.020988   0.496956  -0.006318  -0.000099   0.000020
    22  C    0.005185  -0.000397  -0.006318   5.590019   0.110947  -0.077257
    23  C    0.000197  -0.000020  -0.000099   0.110947   6.711151  -0.486887
    24  C   -0.000035  -0.000008   0.000020  -0.077257  -0.486887   5.185224
    25  O   -0.000006   0.000013  -0.000014  -0.040133  -0.222782   0.658571
    26  C    0.000001  -0.000001   0.000002   0.016630   0.061762   0.246938
    27  C   -0.000000   0.000000  -0.000000  -0.003689  -0.136482   0.119772
    28  C   -0.000001   0.000000   0.000000  -0.000135   0.023790  -0.133049
    29  C    0.000006  -0.000001  -0.000003   0.015407   0.150738   0.196160
    30  C   -0.000525   0.000032   0.000024  -0.010144  -0.053992   0.009126
    31  H    0.000013   0.000001  -0.000006  -0.026616  -0.014432   0.000465
    32  H    0.000036  -0.000000   0.000001   0.012063   0.003744  -0.006861
    33  H   -0.000061  -0.000007  -0.000005  -0.002291   0.000847   0.000904
    34  C   -0.000605   0.000109   0.000126   0.208656   0.040879   0.022617
    35  H    0.000284  -0.000088   0.001089   0.419088   0.008051   0.000002
    36  H   -0.000005  -0.000001   0.000015  -0.049192  -0.042588   0.006973
    37  H    0.000000  -0.000000  -0.000000  -0.000834  -0.029262   0.004769
    38  H    0.000000  -0.000000  -0.000000  -0.000016  -0.005466   0.007805
    39  H    0.000000   0.000000   0.000000   0.000367   0.032602  -0.060312
    40  N    0.000000  -0.000000  -0.000000   0.000048   0.007348  -0.002751
    41  O    0.000000  -0.000000  -0.000000   0.000018  -0.000720   0.001333
    42  O    0.000000  -0.000000   0.000000   0.000000  -0.002084   0.000915
              25         26         27         28         29         30
     1  C   -0.000097   0.000130   0.000017   0.000002  -0.000004  -0.000602
     2  C    0.000185  -0.000816  -0.000073  -0.000004   0.000019  -0.000319
     3  C   -0.002546   0.009303  -0.002794   0.000193  -0.000635  -0.022450
     4  C    0.001717  -0.008723  -0.000136   0.000238  -0.000683  -0.043366
     5  C    0.010917  -0.004229   0.000888   0.000110   0.000148   0.015263
     6  C    0.000607  -0.000501   0.000045  -0.000006   0.000010   0.001596
     7  H    0.000000   0.000000   0.000000   0.000000   0.000000  -0.000003
     8  H    0.000001  -0.000026  -0.000000  -0.000000   0.000000   0.000060
     9  H    0.000012  -0.000003   0.000000  -0.000000   0.000000   0.000028
    10  H   -0.000026   0.001273   0.000319   0.000157  -0.000222   0.000853
    11  C   -0.033027   0.001667  -0.000289  -0.000033  -0.001167  -0.002749
    12  C    0.051770  -0.027867   0.007646  -0.003783   0.008464  -0.027460
    13  N   -0.023217  -0.001986   0.001133   0.002743  -0.010702   0.203295
    14  C   -0.005731   0.001001  -0.000084  -0.000007   0.000147   0.000038
    15  H    0.005921  -0.000431   0.000035   0.000011  -0.000089  -0.000121
    16  H   -0.000838  -0.000016   0.000002  -0.000001   0.000013  -0.000022
    17  H    0.000497   0.000012  -0.000001   0.000000  -0.000003   0.000022
    18  C    0.000784  -0.000092   0.000013  -0.000005   0.000061   0.000426
    19  H   -0.000006   0.000001  -0.000000  -0.000001   0.000006  -0.000525
    20  H    0.000013  -0.000001   0.000000   0.000000  -0.000001   0.000032
    21  H   -0.000014   0.000002  -0.000000   0.000000  -0.000003   0.000024
    22  C   -0.040133   0.016630  -0.003689  -0.000135   0.015407  -0.010144
    23  C   -0.222782   0.061762  -0.136482   0.023790   0.150738  -0.053992
    24  C    0.658571   0.246938   0.119772  -0.133049   0.196160   0.009126
    25  O    8.080496  -0.114675   0.014819  -0.002694   0.011496   0.003107
    26  C   -0.114675   5.767171   0.081490   0.101139  -0.250430   0.005272
    27  C    0.014819   0.081490   5.446900   0.195566   0.084536  -0.006088
    28  C   -0.002694   0.101139   0.195566   5.604536   0.159568   0.005119
    29  C    0.011496  -0.250430   0.084536   0.159568   5.598225  -0.001781
    30  C    0.003107   0.005272  -0.006088   0.005119  -0.001781   5.104832
    31  H   -0.000056  -0.000641   0.000613  -0.000767  -0.007695   0.411628
    32  H    0.000194   0.008311  -0.011710  -0.001984   0.003734   0.415715
    33  H   -0.000092  -0.000120   0.000559  -0.000153  -0.000318   0.410338
    34  C    0.057254   0.021009  -0.009243   0.041095  -0.202058   0.005834
    35  H   -0.000024   0.000192  -0.000042   0.000034  -0.000535  -0.000077
    36  H    0.000037  -0.000431   0.000062   0.000069   0.000548   0.000202
    37  H   -0.000061  -0.003955   0.007173  -0.030164   0.411677  -0.000571
    38  H   -0.000137  -0.027225   0.404856  -0.030308   0.009418   0.000018
    39  H    0.011543   0.415730  -0.045103   0.010547  -0.005719  -0.000526
    40  N    0.000003   0.009397  -0.063150   0.417906  -0.058822   0.000194
    41  O   -0.000000  -0.002121   0.021801  -0.161359   0.025272  -0.000193
    42  O   -0.000000  -0.002288   0.025243  -0.156687   0.022478   0.000016
              31         32         33         34         35         36
     1  C    0.000008   0.000024  -0.000160  -0.000070   0.000004  -0.000000
     2  C    0.000004  -0.000027   0.000087   0.000138  -0.000003   0.000000
     3  C    0.001848  -0.003712  -0.006953  -0.000428   0.000036  -0.000001
     4  C    0.012128  -0.010873  -0.000118   0.006577  -0.000527   0.000081
     5  C   -0.002525   0.000629   0.002513  -0.004933   0.000544  -0.000019
     6  C   -0.000028  -0.000062   0.000164   0.000425  -0.000023   0.000002
     7  H   -0.000000   0.000000   0.000001  -0.000000  -0.000000  -0.000000
     8  H   -0.000001  -0.000006   0.000003   0.000000   0.000000   0.000000
     9  H   -0.000001  -0.000001   0.000002   0.000005  -0.000002   0.000000
    10  H    0.000277  -0.002280  -0.002236   0.000042  -0.000000  -0.000000
    11  C    0.008027  -0.004168   0.001337   0.009431   0.008680   0.000134
    12  C   -0.003409   0.001243  -0.002755   0.053008  -0.051123   0.011382
    13  N   -0.026501  -0.035843  -0.027253   0.025043   0.005725   0.000144
    14  C   -0.000043   0.000071  -0.000004   0.003980  -0.004939  -0.000084
    15  H    0.000006  -0.000004  -0.000000   0.000237  -0.000041   0.000011
    16  H    0.000001   0.000000  -0.000001  -0.001414  -0.001084  -0.000009
    17  H    0.000001  -0.000002   0.000000   0.000204   0.000104   0.000001
    18  C    0.000097  -0.000086   0.000276   0.002216  -0.002924   0.000046
    19  H    0.000013   0.000036  -0.000061  -0.000605   0.000284  -0.000005
    20  H    0.000001  -0.000000  -0.000007   0.000109  -0.000088  -0.000001
    21  H   -0.000006   0.000001  -0.000005   0.000126   0.001089   0.000015
    22  C   -0.026616   0.012063  -0.002291   0.208656   0.419088  -0.049192
    23  C   -0.014432   0.003744   0.000847   0.040879   0.008051  -0.042588
    24  C    0.000465  -0.006861   0.000904   0.022617   0.000002   0.006973
    25  O   -0.000056   0.000194  -0.000092   0.057254  -0.000024   0.000037
    26  C   -0.000641   0.008311  -0.000120   0.021009   0.000192  -0.000431
    27  C    0.000613  -0.011710   0.000559  -0.009243  -0.000042   0.000062
    28  C   -0.000767  -0.001984  -0.000153   0.041095   0.000034   0.000069
    29  C   -0.007695   0.003734  -0.000318  -0.202058  -0.000535   0.000548
    30  C    0.411628   0.415715   0.410338   0.005834  -0.000077   0.000202
    31  H    0.458032  -0.022522  -0.009617   0.016791  -0.000099   0.000639
    32  H   -0.022522   0.478930  -0.029519  -0.013651   0.000027  -0.000151
    33  H   -0.009617  -0.029519   0.458444   0.002454   0.000009   0.000011
    34  C    0.016791  -0.013651   0.002454   5.487405  -0.027732   0.428927
    35  H   -0.000099   0.000027   0.000009  -0.027732   0.467750  -0.004102
    36  H    0.000639  -0.000151   0.000011   0.428927  -0.004102   0.466444
    37  H    0.000404   0.000076  -0.000008  -0.008906  -0.000022   0.002286
    38  H   -0.000001  -0.000212   0.000005   0.000103   0.000000  -0.000001
    39  H    0.000015   0.000305  -0.000018  -0.001445  -0.000000   0.000008
    40  N    0.000002   0.000403  -0.000014  -0.000408   0.000000  -0.000006
    41  O    0.000006   0.000211   0.000000  -0.000739   0.000000  -0.000017
    42  O    0.000000   0.000030   0.000002  -0.000028   0.000000  -0.000000
              37         38         39         40         41         42
     1  C   -0.000000  -0.000000   0.000024  -0.000000  -0.000000   0.000000
     2  C    0.000000   0.000002   0.000034   0.000000   0.000000  -0.000000
     3  C   -0.000001  -0.000058   0.000774   0.000003   0.000000   0.000000
     4  C    0.000001  -0.000021   0.000665   0.000001  -0.000001   0.000000
     5  C    0.000001  -0.000003   0.000312  -0.000000  -0.000000  -0.000000
     6  C    0.000000   0.000001  -0.000079  -0.000000   0.000000  -0.000000
     7  H    0.000000  -0.000000   0.000000   0.000000  -0.000000  -0.000000
     8  H    0.000000   0.000000   0.000001  -0.000000   0.000000  -0.000000
     9  H   -0.000000   0.000000  -0.000000  -0.000000   0.000000  -0.000000
    10  H   -0.000002  -0.000009   0.000056  -0.000000  -0.000000   0.000001
    11  C    0.000005  -0.000002   0.000447  -0.000000  -0.000000   0.000000
    12  C    0.000453   0.000040  -0.001340  -0.000014  -0.000007  -0.000001
    13  N   -0.000084  -0.000014  -0.000043   0.000004   0.000003  -0.000001
    14  C   -0.000001   0.000000  -0.000241   0.000000  -0.000000  -0.000000
    15  H    0.000000  -0.000000   0.000234  -0.000000   0.000000   0.000000
    16  H    0.000000  -0.000000   0.000004  -0.000000   0.000000   0.000000
    17  H   -0.000000   0.000000  -0.000002   0.000000   0.000000   0.000000
    18  C    0.000000   0.000000  -0.000007  -0.000000  -0.000000  -0.000000
    19  H    0.000000   0.000000   0.000000   0.000000   0.000000   0.000000
    20  H   -0.000000  -0.000000   0.000000  -0.000000  -0.000000  -0.000000
    21  H   -0.000000  -0.000000   0.000000  -0.000000  -0.000000   0.000000
    22  C   -0.000834  -0.000016   0.000367   0.000048   0.000018   0.000000
    23  C   -0.029262  -0.005466   0.032602   0.007348  -0.000720  -0.002084
    24  C    0.004769   0.007805  -0.060312  -0.002751   0.001333   0.000915
    25  O   -0.000061  -0.000137   0.011543   0.000003  -0.000000  -0.000000
    26  C   -0.003955  -0.027225   0.415730   0.009397  -0.002121  -0.002288
    27  C    0.007173   0.404856  -0.045103  -0.063150   0.021801   0.025243
    28  C   -0.030164  -0.030308   0.010547   0.417906  -0.161359  -0.156687
    29  C    0.411677   0.009418  -0.005719  -0.058822   0.025272   0.022478
    30  C   -0.000571   0.000018  -0.000526   0.000194  -0.000193   0.000016
    31  H    0.000404  -0.000001   0.000015   0.000002   0.000006   0.000000
    32  H    0.000076  -0.000212   0.000305   0.000403   0.000211   0.000030
    33  H   -0.000008   0.000005  -0.000018  -0.000014   0.000000   0.000002
    34  C   -0.008906   0.000103  -0.001445  -0.000408  -0.000739  -0.000028
    35  H   -0.000022   0.000000  -0.000000   0.000000   0.000000   0.000000
    36  H    0.002286  -0.000001   0.000008  -0.000006  -0.000017  -0.000000
    37  H    0.445045  -0.000195   0.000046  -0.006641   0.020618   0.001177
    38  H   -0.000195   0.447109  -0.006286  -0.005902   0.000984   0.018432
    39  H    0.000046  -0.006286   0.491769  -0.000053   0.000002  -0.000072
    40  N   -0.006641  -0.005902  -0.000053   5.483283   0.363901   0.361872
    41  O    0.020618   0.000984   0.000002   0.363901   8.266545  -0.134112
    42  O    0.001177   0.018432  -0.000072   0.361872  -0.134112   8.265399
 Mulliken charges:
               1
     1  C   -0.155047
     2  C   -0.149029
     3  C   -0.205377
     4  C    0.134854
     5  C   -0.025548
     6  C   -0.180027
     7  H    0.165337
     8  H    0.166744
     9  H    0.171800
    10  H    0.187390
    11  C    0.036906
    12  C    0.116416
    13  N   -0.004483
    14  C   -0.428869
    15  H    0.190895
    16  H    0.165040
    17  H    0.163491
    18  C   -0.404225
    19  H    0.169496
    20  H    0.176307
    21  H    0.171157
    22  C   -0.190399
    23  C   -0.069525
    24  C    0.273351
    25  O   -0.463786
    26  C   -0.301855
    27  C   -0.134601
    28  C   -0.041682
    29  C   -0.157258
    30  C   -0.422047
    31  H    0.203953
    32  H    0.217925
    33  H    0.203748
    34  C   -0.162904
    35  H    0.181768
    36  H    0.178585
    37  H    0.186976
    38  H    0.187084
    39  H    0.155760
    40  N    0.493398
    41  O   -0.401427
    42  O   -0.400293
 Sum of Mulliken charges =  -0.00000
 Mulliken charges with hydrogens summed into heavy atoms:
               1
     1  C    0.010291
     2  C    0.017715
     3  C   -0.017987
     4  C    0.134854
     5  C   -0.025548
     6  C   -0.008227
    11  C    0.036906
    12  C    0.116416
    13  N   -0.004483
    14  C    0.090556
    18  C    0.112735
    22  C   -0.008630
    23  C   -0.069525
    24  C    0.273351
    25  O   -0.463786
    26  C   -0.146094
    27  C    0.052483
    28  C   -0.041682
    29  C    0.029718
    30  C    0.203579
    34  C    0.015680
    40  N    0.493398
    41  O   -0.401427
    42  O   -0.400293
 Electronic spatial extent (au):  <R**2>=           7703.8141
 Charge=              0.0000 electrons
 Dipole moment (field-independent basis, Debye):
    X=             12.5488    Y=              1.5581    Z=             -4.7842  Tot=             13.5199
 Quadrupole moment (field-independent basis, Debye-Ang):
   XX=           -171.6844   YY=           -123.6271   ZZ=           -145.4885
   XY=             -6.8104   XZ=             -4.9315   YZ=             -5.3740
 Traceless Quadrupole moment (field-independent basis, Debye-Ang):
   XX=            -24.7510   YY=             23.3062   ZZ=              1.4448
   XY=             -6.8104   XZ=             -4.9315   YZ=             -5.3740
 Octapole moment (field-independent basis, Debye-Ang**2):
  XXX=            368.3375  YYY=              4.6329  ZZZ=            -30.1731  XYY=             29.9343
  XXY=             47.3989  XXZ=             52.9543  XZZ=             -9.4535  YZZ=            -11.2129
  YYZ=            -11.7232  XYZ=             -1.9904
 Hexadecapole moment (field-independent basis, Debye-Ang**3):
 XXXX=          -8529.9116 YYYY=          -1955.4477 ZZZZ=           -939.2329 XXXY=           -235.9440
 XXXZ=           -121.6903 YYYX=            -80.4631 YYYZ=            -18.5833 ZZZX=             19.7018
 ZZZY=            -12.0914 XXYY=          -1532.0035 XXZZ=          -1392.8775 YYZZ=           -535.2064
 XXYZ=            -39.8159 YYXZ=             13.3541 ZZXY=             39.8082
 N-N= 2.078541650618D+03 E-N=-6.647721339281D+03  KE= 1.064726216426D+03
 No NMR shielding tensors so no spin-rotation constants.
 Leave Link  601 at Mon Mar 11 22:59:52 2024, MaxMem=  2684354560 cpu:              25.3 elap:               1.3
 (Enter /s/ls4/groups/g0130/bin/g16/l9999.exe)
 Electronic transition elements 
                 1             2             3             4             5 
      1  -0.106981D+04 -0.106976D+04 -0.106975D+04 -0.106974D+04 -0.106971D+04
      2  -0.726692D+00 -0.411882D+00  0.152145D+01  0.185465D+01  0.324635D+00
      3   0.754969D-01  0.152858D+00  0.764709D+00 -0.117327D+01 -0.502668D+00
      4   0.131840D+01  0.625692D+00 -0.932418D+00 -0.106435D+01 -0.409298D+00
      5   0.457960D-01  0.475964D-01 -0.194986D+00 -0.259619D+00 -0.529306D-01
      6  -0.522946D-02 -0.186423D-01 -0.970672D-01  0.163874D+00  0.807822D-01
      7  -0.819186D-01 -0.745504D-01  0.118842D+00  0.148814D+00  0.660197D-01
      8  -0.616497D+00 -0.658604D+00  0.845774D+00  0.661600D+00  0.567460D+00
      9   0.957957D+00  0.350011D+00  0.871317D-01  0.622289D+00  0.152404D+00
     10  -0.722760D+00 -0.214641D+00 -0.133538D+00  0.525634D+00  0.354715D-01
     11  -0.193677D-01  0.980580D-01  0.275066D+00 -0.157681D+01 -0.800202D+00
     12  -0.745539D-01 -0.792426D-01 -0.108000D+00  0.870289D-02  0.926402D-01
     13   0.622148D-01  0.158954D+00  0.792627D-01 -0.817663D+00 -0.180418D+00
     14  -0.102257D+00 -0.232012D+00  0.161807D-01  0.767690D+00  0.887266D-02
     15  -0.125166D-01 -0.120125D+00 -0.121497D+00  0.139908D+01  0.634135D+00
     16   0.165578D-01  0.114910D+00 -0.260980D+00 -0.747949D+00  0.682055D-01
 1\1\GINC-N011\FOpt\RM062X TD-FC\def2TZVP\C19H18N2O3\ARTD\11-Mar-2024\0
 \\#p M062X/def2TZVP SCRF(PCM,Solvent=chloroform) TD(Singlets,NStates=5
 , root=1) integral=ultrafine opt guess=(read) geom=(allcheck) gfinput\
 \TITLE\\0,1\C,-1.9898946275,1.9916026828,-0.09208766\C,-1.0190755471,1
 .0879667403,-0.5113913492\C,0.2726925105,1.5070294906,-0.8149187938\C,
 0.544850685,2.8603316477,-0.6920681774\C,-0.4113720836,3.7763705738,-0
 .2573130085\C,-1.6860368632,3.3464154548,0.0461139024\H,-2.9875305511,
 1.6390106747,0.1327592699\H,-1.2713652503,0.0401932609,-0.6086488296\H
 ,-2.4394199093,4.0451701538,0.3898605239\H,1.0254106691,0.8052293136,-
 1.1491272596\C,0.229289595,5.1388252908,-0.1327029084\C,1.584525265,4.
 8683302388,-0.7618313842\N,1.7522106967,3.5208509582,-0.9418505017\C,-
 0.5550105314,6.2435839808,-0.8386547602\H,-0.6891282195,6.0054089888,-
 1.8913380242\H,-0.0239473769,7.193765421,-0.7609397187\H,-1.5313839101
 ,6.3617197333,-0.3654467876\C,0.4163143468,5.4964003516,1.3564581379\H
 ,0.9724983904,4.7172614795,1.878372904\H,-0.5599841589,5.6052190095,1.
 8319641675\H,0.955300066,6.4402364105,1.4532212904\C,2.5118191641,5.85
 76353776,-1.1277591049\C,3.3128837014,4.7311565753,-3.1686051457\C,1.9
 608601372,4.3418981575,-3.6337371805\O,0.9753650752,5.0529121812,-3.40
 23498537\C,1.8518852398,3.1167676449,-4.3930859908\C,2.9581842187,2.45
 98337765,-4.841488273\C,4.2296152408,2.9706747119,-4.5115657686\C,4.41
 61338257,4.0717344103,-3.6973261319\C,3.0064508563,2.7832541182,-0.930
 9738478\H,3.8301798113,3.4806414086,-0.8157033212\H,3.141031582,2.2168
 580466,-1.8539807743\H,2.9980438623,2.0898402102,-0.0874900695\C,3.422
 1596668,5.7470636355,-2.1607127876\H,2.4764510581,6.7849829241,-0.5638
 297226\H,4.248746336,6.4461217075,-2.2192815962\H,5.4187709338,4.37090
 99809,-3.4250053644\H,2.8867625006,1.5750569274,-5.4562069994\H,0.8555
 788811,2.7968059573,-4.6674597778\N,5.4090851804,2.2762675824,-5.02266
 58001\O,6.5011075028,2.7445558055,-4.7733181238\O,5.23637203,1.2639170
 048,-5.6706553994\\Version=ES64L-G16RevA.03\State=1-A\HF=-1069.8712509
 \RMSD=2.539e-09\RMSF=1.339e-05\Dipole=-1.2146116,0.2631695,2.400024\PG
 =C01 [X(C19H18N2O3)]\\@


 It is also a good rule not to put too much confidence in
 experimental results until they have been confirmed by
 Theory.
                             -- Sir Arthur Eddington
 Job cpu time:      33 days 15 hours 32 minutes  6.7 seconds.
 Elapsed time:       1 days  9 hours 39 minutes 42.5 seconds.
 File lengths (MBytes):  RWF=   2618 Int=      0 D2E=      0 Chk=    181 Scr=      1
 Normal termination of Gaussian 16 at Mon Mar 11 22:59:54 2024.
