 Entering Gaussian System, Link 0=/s/ls4/groups/g0130/bin/g16/g16
 Input=mc1_s1_b3lyp.gjf
 Output=mc1_s1_b3lyp.log
 Initial command:
 /s/ls4/groups/g0130/bin/g16/l1.exe "/dev/shm/scratch_artd/Gau-9272.inp" -scrdir="/dev/shm/scratch_artd/"
 Entering Link 1 = /s/ls4/groups/g0130/bin/g16/l1.exe PID=      9273.
  
 Copyright (c) 1988,1990,1992,1993,1995,1998,2003,2009,2016,
            Gaussian, Inc.  All Rights Reserved.
  
 This is part of the Gaussian(R) 16 program.  It is based on
 the Gaussian(R) 09 system (copyright 2009, Gaussian, Inc.),
 the Gaussian(R) 03 system (copyright 2003, Gaussian, Inc.),
 the Gaussian(R) 98 system (copyright 1998, Gaussian, Inc.),
 the Gaussian(R) 94 system (copyright 1995, Gaussian, Inc.),
 the Gaussian 92(TM) system (copyright 1992, Gaussian, Inc.),
 the Gaussian 90(TM) system (copyright 1990, Gaussian, Inc.),
 the Gaussian 88(TM) system (copyright 1988, Gaussian, Inc.),
 the Gaussian 86(TM) system (copyright 1986, Carnegie Mellon
 University), and the Gaussian 82(TM) system (copyright 1983,
 Carnegie Mellon University). Gaussian is a federally registered
 trademark of Gaussian, Inc.
  
 This software contains proprietary and confidential information,
 including trade secrets, belonging to Gaussian, Inc.
  
 This software is provided under written license and may be
 used, copied, transmitted, or stored only in accord with that
 written license.
  
 The following legend is applicable only to US Government
 contracts under FAR:
  
                    RESTRICTED RIGHTS LEGEND
  
 Use, reproduction and disclosure by the US Government is
 subject to restrictions as set forth in subparagraphs (a)
 and (c) of the Commercial Computer Software - Restricted
 Rights clause in FAR 52.227-19.
  
 Gaussian, Inc.
 340 Quinnipiac St., Bldg. 40, Wallingford CT 06492
  
  
 ---------------------------------------------------------------
 Warning -- This program may not be used in any manner that
 competes with the business of Gaussian, Inc. or will provide
 assistance to any competitor of Gaussian, Inc.  The licensee
 of this program is prohibited from giving any competitor of
 Gaussian, Inc. access to this program.  By using this program,
 the user acknowledges that Gaussian, Inc. is engaged in the
 business of creating and licensing software in the field of
 computational chemistry and represents and warrants to the
 licensee that it is not a competitor of Gaussian, Inc. and that
 it will not use this program in any manner prohibited above.
 ---------------------------------------------------------------
  

 Cite this work as:
 Gaussian 16, Revision A.03,
 M. J. Frisch, G. W. Trucks, H. B. Schlegel, G. E. Scuseria, 
 M. A. Robb, J. R. Cheeseman, G. Scalmani, V. Barone, 
 G. A. Petersson, H. Nakatsuji, X. Li, M. Caricato, A. V. Marenich, 
 J. Bloino, B. G. Janesko, R. Gomperts, B. Mennucci, H. P. Hratchian, 
 J. V. Ortiz, A. F. Izmaylov, J. L. Sonnenberg, D. Williams-Young, 
 F. Ding, F. Lipparini, F. Egidi, J. Goings, B. Peng, A. Petrone, 
 T. Henderson, D. Ranasinghe, V. G. Zakrzewski, J. Gao, N. Rega, 
 G. Zheng, W. Liang, M. Hada, M. Ehara, K. Toyota, R. Fukuda, 
 J. Hasegawa, M. Ishida, T. Nakajima, Y. Honda, O. Kitao, H. Nakai, 
 T. Vreven, K. Throssell, J. A. Montgomery, Jr., J. E. Peralta, 
 F. Ogliaro, M. J. Bearpark, J. J. Heyd, E. N. Brothers, K. N. Kudin, 
 V. N. Staroverov, T. A. Keith, R. Kobayashi, J. Normand, 
 K. Raghavachari, A. P. Rendell, J. C. Burant, S. S. Iyengar, 
 J. Tomasi, M. Cossi, J. M. Millam, M. Klene, C. Adamo, R. Cammi, 
 J. W. Ochterski, R. L. Martin, K. Morokuma, O. Farkas, 
 J. B. Foresman, and D. J. Fox, Gaussian, Inc., Wallingford CT, 2016.
 
 ******************************************
 Gaussian 16:  ES64L-G16RevA.03 25-Dec-2016
                10-Mar-2024 
 ******************************************
 %nprocshared=24
 Will use up to   24 processors via shared memory.
 %mem=20GB
 %oldchk=mc1_gs_b3lyp.chk
 %chk=mc1_s1_b3lyp.chk
 Copying data from "mc1_gs_b3lyp.chk" to current chk file "mc1_s1_b3lyp.chk"
 IOpt=  2 FromEx=T IUOpen= 4 IOptOp= 5 NList=   0 IFRang= 0 IUIn= 4 IUOut= 2.
 ----------------------------------------------------------------------
 #p CAM-B3LYP/def2TZVP EmpiricalDispersion=GD3BJ SCRF(PCM,Solvent=chlor
 oform) TD(Singlets,NStates=5, root=1) opt guess=(read) geom=(allcheck)
  gfinput
 ----------------------------------------------------------------------
 1/18=20,19=15,26=3,29=7,38=1/1,3;
 2/9=110,12=2,40=1/2;
 3/5=44,7=101,11=9,14=-4,24=10,25=1,30=1,70=2201,71=1,72=7,74=-40,116=-2,124=41/1,2,3,8;
 4/5=1/1;
 5/5=2,38=6,53=7/2;
 8/6=1,10=1,107=1,108=5/1;
 9/8=1,15=2,41=5,42=1,48=1,70=2/14;
 10/5=4,28=1/2;
 6/7=2,8=2,9=2,10=2/1;
 7/12=6,13=5,14=1/1,2,3,16;
 1/18=20,19=15,26=3/3(2);
 2/9=110/2;
 99//99;
 2/9=110/2;
 3/5=44,7=101,11=9,14=-2,25=1,30=1,70=2205,71=1,72=7,74=-40,124=41/1,2,3,8;
 4/5=5,16=3,69=1/1;
 5/5=2,38=5,53=7/2;
 8/6=1,10=1,107=1,108=5/1;
 9/8=1,15=2,41=5,42=1,48=1,49=4,70=2/14;
 10/5=4,28=1/2;
 7/12=6,13=5,14=1/1,2,3,16;
 1/18=20,19=15,26=3/3(-8);
 2/9=110/2;
 6/7=2,8=2,9=2,10=2/1;
 99//99;
 Leave Link    1 at Sun Mar 10 13:15:41 2024, MaxMem=  2684354560 cpu:              49.6 elap:               2.2
 (Enter /s/ls4/groups/g0130/bin/g16/l101.exe)
 Structure from the checkpoint file:  "mc1_s1_b3lyp.chk"
 -----
 TITLE
 -----
 Charge =  0 Multiplicity = 1
 Redundant internal coordinates found in file.  (old form).
 C,0,-2.4127588202,2.3108805177,0.6045620559
 C,0,-1.5944450094,1.2279984627,0.3182477736
 C,0,-0.2784871035,1.4119526559,-0.0859672266
 C,0,0.1633724341,2.711978377,-0.1870265577
 C,0,-0.636742746,3.8057253222,0.0878598108
 C,0,-1.9384500427,3.6131112269,0.4925751421
 H,0,-3.4344923298,2.1392949063,0.9140829877
 H,0,-1.9854218033,0.2237657991,0.4055153298
 H,0,-2.58514728,4.4517904542,0.7140363484
 H,0,0.354165626,0.5682335357,-0.3196941358
 C,0,0.1673824757,5.0601893722,-0.1276706693
 C,0,1.482474072,4.4843700979,-0.6172696827
 N,0,1.4482289367,3.176730041,-0.5654112446
 C,0,-0.4459924136,5.9802526998,-1.1862243656
 H,0,-0.5638574274,5.4542387126,-2.1299298164
 H,0,0.1946582259,6.845856439,-1.3509428599
 H,0,-1.4178478843,6.3305785574,-0.840153743
 C,0,0.3782723464,5.8176764495,1.191782598
 H,0,0.8485403546,5.1857417387,1.9445172162
 H,0,-0.5886151251,6.1420364281,1.5734252152
 H,0,0.9938541281,6.7027669316,1.038757083
 C,0,2.6125535882,5.2870521717,-0.9448800843
 C,0,3.4728063435,4.3503421243,-3.1459832816
 C,0,2.2499582327,3.7806847597,-3.6930203482
 O,0,1.1378282791,3.9088571844,-3.1434326082
 C,0,2.3881699318,3.0602424779,-4.9361038288
 C,0,3.5769976008,2.9131753935,-5.5675355758
 C,0,4.7344535071,3.5046654249,-5.0222334016
 C,0,4.6656272086,4.2228689511,-3.8517315341
 C,0,2.5376833086,2.2698490248,-0.8512262305
 H,0,3.4772811299,2.8040853493,-0.7678232536
 H,0,2.4371064202,1.8705426553,-1.8586771988
 H,0,2.5128285017,1.4569704667,-0.1302217444
 C,0,3.4967467478,5.1555568484,-1.9606884055
 H,0,2.7434497036,6.1414128847,-0.2915800607
 H,0,4.344807749,5.8310749487,-1.907129394
 H,0,5.5657850588,4.6835132298,-3.4701165162
 H,0,3.6557177767,2.358809846,-6.4907834118
 H,0,1.4853859858,2.6275376101,-5.3457926421
 N,0,5.9874258296,3.3705677763,-5.6968383247
 O,0,6.9811168419,3.899203741,-5.2141530247
 O,0,6.0240096406,2.7276284057,-6.7378903895
 Recover connectivity data from disk.
 ITRead=  0  0  0  0  0  0  0  0  0  0  0  0  0  0  0  0  0  0  0  0
 ITRead=  0  0  0  0  0  0  0  0  0  0  0  0  0  0  0  0  0  0  0  0
 ITRead=  0  0
 MicOpt= -1 -1 -1 -1 -1 -1 -1 -1 -1 -1 -1 -1 -1 -1 -1 -1 -1 -1 -1 -1
 MicOpt= -1 -1 -1 -1 -1 -1 -1 -1 -1 -1 -1 -1 -1 -1 -1 -1 -1 -1 -1 -1
 MicOpt= -1 -1
 NAtoms=     42 NQM=       42 NQMF=       0 NMMI=      0 NMMIF=      0
                NMic=       0 NMicF=      0.
                    Isotopes and Nuclear Properties:
 (Nuclear quadrupole moments (NQMom) in fm**2, nuclear magnetic moments (NMagM)
  in nuclear magnetons)

  Atom         1           2           3           4           5           6           7           8           9          10
 IAtWgt=          12          12          12          12          12          12           1           1           1           1
 AtmWgt=  12.0000000  12.0000000  12.0000000  12.0000000  12.0000000  12.0000000   1.0078250   1.0078250   1.0078250   1.0078250
 NucSpn=           0           0           0           0           0           0           1           1           1           1
 AtZEff=   3.6000000   3.6000000   3.6000000   3.6000000   3.6000000   3.6000000   1.0000000   1.0000000   1.0000000   1.0000000
 NQMom=    0.0000000   0.0000000   0.0000000   0.0000000   0.0000000   0.0000000   0.0000000   0.0000000   0.0000000   0.0000000
 NMagM=    0.0000000   0.0000000   0.0000000   0.0000000   0.0000000   0.0000000   2.7928460   2.7928460   2.7928460   2.7928460
 AtZNuc=   6.0000000   6.0000000   6.0000000   6.0000000   6.0000000   6.0000000   1.0000000   1.0000000   1.0000000   1.0000000

  Atom        11          12          13          14          15          16          17          18          19          20
 IAtWgt=          12          12          14          12           1           1           1          12           1           1
 AtmWgt=  12.0000000  12.0000000  14.0030740  12.0000000   1.0078250   1.0078250   1.0078250  12.0000000   1.0078250   1.0078250
 NucSpn=           0           0           2           0           1           1           1           0           1           1
 AtZEff=   3.6000000   3.6000000   4.5500000   3.6000000   1.0000000   1.0000000   1.0000000   3.6000000   1.0000000   1.0000000
 NQMom=    0.0000000   0.0000000   2.0440000   0.0000000   0.0000000   0.0000000   0.0000000   0.0000000   0.0000000   0.0000000
 NMagM=    0.0000000   0.0000000   0.4037610   0.0000000   2.7928460   2.7928460   2.7928460   0.0000000   2.7928460   2.7928460
 AtZNuc=   6.0000000   6.0000000   7.0000000   6.0000000   1.0000000   1.0000000   1.0000000   6.0000000   1.0000000   1.0000000

  Atom        21          22          23          24          25          26          27          28          29          30
 IAtWgt=           1          12          12          12          16          12          12          12          12          12
 AtmWgt=   1.0078250  12.0000000  12.0000000  12.0000000  15.9949146  12.0000000  12.0000000  12.0000000  12.0000000  12.0000000
 NucSpn=           1           0           0           0           0           0           0           0           0           0
 AtZEff=   1.0000000   3.6000000   3.6000000   3.6000000   5.6000000   3.6000000   3.6000000   3.6000000   3.6000000   3.6000000
 NQMom=    0.0000000   0.0000000   0.0000000   0.0000000   0.0000000   0.0000000   0.0000000   0.0000000   0.0000000   0.0000000
 NMagM=    2.7928460   0.0000000   0.0000000   0.0000000   0.0000000   0.0000000   0.0000000   0.0000000   0.0000000   0.0000000
 AtZNuc=   1.0000000   6.0000000   6.0000000   6.0000000   8.0000000   6.0000000   6.0000000   6.0000000   6.0000000   6.0000000

  Atom        31          32          33          34          35          36          37          38          39          40
 IAtWgt=           1           1           1          12           1           1           1           1           1          14
 AtmWgt=   1.0078250   1.0078250   1.0078250  12.0000000   1.0078250   1.0078250   1.0078250   1.0078250   1.0078250  14.0030740
 NucSpn=           1           1           1           0           1           1           1           1           1           2
 AtZEff=   1.0000000   1.0000000   1.0000000   3.6000000   1.0000000   1.0000000   1.0000000   1.0000000   1.0000000   4.5500000
 NQMom=    0.0000000   0.0000000   0.0000000   0.0000000   0.0000000   0.0000000   0.0000000   0.0000000   0.0000000   2.0440000
 NMagM=    2.7928460   2.7928460   2.7928460   0.0000000   2.7928460   2.7928460   2.7928460   2.7928460   2.7928460   0.4037610
 AtZNuc=   1.0000000   1.0000000   1.0000000   6.0000000   1.0000000   1.0000000   1.0000000   1.0000000   1.0000000   7.0000000

  Atom        41          42
 IAtWgt=          16          16
 AtmWgt=  15.9949146  15.9949146
 NucSpn=           0           0
 AtZEff=   5.6000000   5.6000000
 NQMom=    0.0000000   0.0000000
 NMagM=    0.0000000   0.0000000
 AtZNuc=   8.0000000   8.0000000
 Leave Link  101 at Sun Mar 10 13:15:42 2024, MaxMem=  2684354560 cpu:               7.5 elap:               0.3
 (Enter /s/ls4/groups/g0130/bin/g16/l103.exe)

 GradGradGradGradGradGradGradGradGradGradGradGradGradGradGradGradGradGrad
 Berny optimization.
 Initialization pass.
                           ----------------------------
                           !    Initial Parameters    !
                           ! (Angstroms and Degrees)  !
 --------------------------                            --------------------------
 ! Name  Definition              Value          Derivative Info.                !
 --------------------------------------------------------------------------------
 ! R1    R(1,2)                  1.3872         estimate D2E/DX2                !
 ! R2    R(1,6)                  1.3904         estimate D2E/DX2                !
 ! R3    R(1,7)                  1.0813         estimate D2E/DX2                !
 ! R4    R(2,3)                  1.3889         estimate D2E/DX2                !
 ! R5    R(2,8)                  1.0812         estimate D2E/DX2                !
 ! R6    R(3,4)                  1.3768         estimate D2E/DX2                !
 ! R7    R(3,10)                 1.0802         estimate D2E/DX2                !
 ! R8    R(4,5)                  1.3828         estimate D2E/DX2                !
 ! R9    R(4,13)                 1.4178         estimate D2E/DX2                !
 ! R10   R(5,6)                  1.3767         estimate D2E/DX2                !
 ! R11   R(5,11)                 1.5056         estimate D2E/DX2                !
 ! R12   R(6,9)                  1.082          estimate D2E/DX2                !
 ! R13   R(11,12)                1.5168         estimate D2E/DX2                !
 ! R14   R(11,14)                1.5308         estimate D2E/DX2                !
 ! R15   R(11,18)                1.536          estimate D2E/DX2                !
 ! R16   R(12,13)                1.3091         estimate D2E/DX2                !
 ! R17   R(12,22)                1.4243         estimate D2E/DX2                !
 ! R18   R(13,30)                1.446          estimate D2E/DX2                !
 ! R19   R(14,15)                1.0868         estimate D2E/DX2                !
 ! R20   R(14,16)                1.0894         estimate D2E/DX2                !
 ! R21   R(14,17)                1.0895         estimate D2E/DX2                !
 ! R22   R(18,19)                1.0895         estimate D2E/DX2                !
 ! R23   R(18,20)                1.0889         estimate D2E/DX2                !
 ! R24   R(18,21)                1.0889         estimate D2E/DX2                !
 ! R25   R(22,34)                1.3531         estimate D2E/DX2                !
 ! R26   R(22,35)                1.0835         estimate D2E/DX2                !
 ! R27   R(23,24)                1.4557         estimate D2E/DX2                !
 ! R28   R(23,29)                1.3918         estimate D2E/DX2                !
 ! R29   R(23,34)                1.4331         estimate D2E/DX2                !
 ! R30   R(24,25)                1.2471         estimate D2E/DX2                !
 ! R31   R(24,26)                1.4434         estimate D2E/DX2                !
 ! R32   R(26,27)                1.3541         estimate D2E/DX2                !
 ! R33   R(26,39)                1.0817         estimate D2E/DX2                !
 ! R34   R(27,28)                1.4096         estimate D2E/DX2                !
 ! R35   R(27,38)                1.0798         estimate D2E/DX2                !
 ! R36   R(28,29)                1.375          estimate D2E/DX2                !
 ! R37   R(28,40)                1.4293         estimate D2E/DX2                !
 ! R38   R(29,37)                1.0808         estimate D2E/DX2                !
 ! R39   R(30,31)                1.0841         estimate D2E/DX2                !
 ! R40   R(30,32)                1.0884         estimate D2E/DX2                !
 ! R41   R(30,33)                1.0868         estimate D2E/DX2                !
 ! R42   R(34,36)                1.0855         estimate D2E/DX2                !
 ! R43   R(40,41)                1.2247         estimate D2E/DX2                !
 ! R44   R(40,42)                1.2241         estimate D2E/DX2                !
 ! A1    A(2,1,6)              120.8813         estimate D2E/DX2                !
 ! A2    A(2,1,7)              119.5136         estimate D2E/DX2                !
 ! A3    A(6,1,7)              119.6044         estimate D2E/DX2                !
 ! A4    A(1,2,3)              121.0389         estimate D2E/DX2                !
 ! A5    A(1,2,8)              119.676          estimate D2E/DX2                !
 ! A6    A(3,2,8)              119.2845         estimate D2E/DX2                !
 ! A7    A(2,3,4)              116.7767         estimate D2E/DX2                !
 ! A8    A(2,3,10)             120.9623         estimate D2E/DX2                !
 ! A9    A(4,3,10)             122.2561         estimate D2E/DX2                !
 ! A10   A(3,4,5)              123.1336         estimate D2E/DX2                !
 ! A11   A(3,4,13)             128.3145         estimate D2E/DX2                !
 ! A12   A(5,4,13)             108.5517         estimate D2E/DX2                !
 ! A13   A(4,5,6)              119.6622         estimate D2E/DX2                !
 ! A14   A(4,5,11)             108.7569         estimate D2E/DX2                !
 ! A15   A(6,5,11)             131.5795         estimate D2E/DX2                !
 ! A16   A(1,6,5)              118.5058         estimate D2E/DX2                !
 ! A17   A(1,6,9)              120.3709         estimate D2E/DX2                !
 ! A18   A(5,6,9)              121.1222         estimate D2E/DX2                !
 ! A19   A(5,11,12)            101.126          estimate D2E/DX2                !
 ! A20   A(5,11,14)            112.6922         estimate D2E/DX2                !
 ! A21   A(5,11,18)            111.1781         estimate D2E/DX2                !
 ! A22   A(12,11,14)           110.6322         estimate D2E/DX2                !
 ! A23   A(12,11,18)           110.2096         estimate D2E/DX2                !
 ! A24   A(14,11,18)           110.6486         estimate D2E/DX2                !
 ! A25   A(11,12,13)           110.1042         estimate D2E/DX2                !
 ! A26   A(11,12,22)           123.2436         estimate D2E/DX2                !
 ! A27   A(13,12,22)           126.3547         estimate D2E/DX2                !
 ! A28   A(4,13,12)            111.2058         estimate D2E/DX2                !
 ! A29   A(4,13,30)            122.0021         estimate D2E/DX2                !
 ! A30   A(12,13,30)           126.7913         estimate D2E/DX2                !
 ! A31   A(11,14,15)           110.6715         estimate D2E/DX2                !
 ! A32   A(11,14,16)           110.2723         estimate D2E/DX2                !
 ! A33   A(11,14,17)           109.3319         estimate D2E/DX2                !
 ! A34   A(15,14,16)           108.4845         estimate D2E/DX2                !
 ! A35   A(15,14,17)           109.5547         estimate D2E/DX2                !
 ! A36   A(16,14,17)           108.4881         estimate D2E/DX2                !
 ! A37   A(11,18,19)           111.5128         estimate D2E/DX2                !
 ! A38   A(11,18,20)           109.0299         estimate D2E/DX2                !
 ! A39   A(11,18,21)           110.9621         estimate D2E/DX2                !
 ! A40   A(19,18,20)           108.2933         estimate D2E/DX2                !
 ! A41   A(19,18,21)           108.9365         estimate D2E/DX2                !
 ! A42   A(20,18,21)           108.005          estimate D2E/DX2                !
 ! A43   A(12,22,34)           129.5207         estimate D2E/DX2                !
 ! A44   A(12,22,35)           113.6754         estimate D2E/DX2                !
 ! A45   A(34,22,35)           116.7661         estimate D2E/DX2                !
 ! A46   A(24,23,29)           119.5733         estimate D2E/DX2                !
 ! A47   A(24,23,34)           123.0041         estimate D2E/DX2                !
 ! A48   A(29,23,34)           117.163          estimate D2E/DX2                !
 ! A49   A(23,24,25)           122.9074         estimate D2E/DX2                !
 ! A50   A(23,24,26)           116.0094         estimate D2E/DX2                !
 ! A51   A(25,24,26)           121.0787         estimate D2E/DX2                !
 ! A52   A(24,26,27)           122.6745         estimate D2E/DX2                !
 ! A53   A(24,26,39)           116.4826         estimate D2E/DX2                !
 ! A54   A(27,26,39)           120.8412         estimate D2E/DX2                !
 ! A55   A(26,27,28)           119.6655         estimate D2E/DX2                !
 ! A56   A(26,27,38)           121.2299         estimate D2E/DX2                !
 ! A57   A(28,27,38)           119.1009         estimate D2E/DX2                !
 ! A58   A(27,28,29)           120.4906         estimate D2E/DX2                !
 ! A59   A(27,28,40)           119.8587         estimate D2E/DX2                !
 ! A60   A(29,28,40)           119.6472         estimate D2E/DX2                !
 ! A61   A(23,29,28)           121.4929         estimate D2E/DX2                !
 ! A62   A(23,29,37)           119.7168         estimate D2E/DX2                !
 ! A63   A(28,29,37)           118.7839         estimate D2E/DX2                !
 ! A64   A(13,30,31)           109.1918         estimate D2E/DX2                !
 ! A65   A(13,30,32)           110.086          estimate D2E/DX2                !
 ! A66   A(13,30,33)           108.7057         estimate D2E/DX2                !
 ! A67   A(31,30,32)           109.3973         estimate D2E/DX2                !
 ! A68   A(31,30,33)           109.7164         estimate D2E/DX2                !
 ! A69   A(32,30,33)           109.7282         estimate D2E/DX2                !
 ! A70   A(22,34,23)           131.6495         estimate D2E/DX2                !
 ! A71   A(22,34,36)           114.3922         estimate D2E/DX2                !
 ! A72   A(23,34,36)           113.7967         estimate D2E/DX2                !
 ! A73   A(28,40,41)           118.9962         estimate D2E/DX2                !
 ! A74   A(28,40,42)           118.4802         estimate D2E/DX2                !
 ! A75   A(41,40,42)           122.5235         estimate D2E/DX2                !
 ! D1    D(6,1,2,3)              0.1092         estimate D2E/DX2                !
 ! D2    D(6,1,2,8)           -179.5939         estimate D2E/DX2                !
 ! D3    D(7,1,2,3)            179.7978         estimate D2E/DX2                !
 ! D4    D(7,1,2,8)              0.0948         estimate D2E/DX2                !
 ! D5    D(2,1,6,5)              0.1276         estimate D2E/DX2                !
 ! D6    D(2,1,6,9)            179.7465         estimate D2E/DX2                !
 ! D7    D(7,1,6,5)           -179.5607         estimate D2E/DX2                !
 ! D8    D(7,1,6,9)              0.0582         estimate D2E/DX2                !
 ! D9    D(1,2,3,4)             -0.0663         estimate D2E/DX2                !
 ! D10   D(1,2,3,10)          -179.2808         estimate D2E/DX2                !
 ! D11   D(8,2,3,4)            179.6379         estimate D2E/DX2                !
 ! D12   D(8,2,3,10)             0.4234         estimate D2E/DX2                !
 ! D13   D(2,3,4,5)             -0.2187         estimate D2E/DX2                !
 ! D14   D(2,3,4,13)           179.5922         estimate D2E/DX2                !
 ! D15   D(10,3,4,5)           178.9848         estimate D2E/DX2                !
 ! D16   D(10,3,4,13)           -1.2044         estimate D2E/DX2                !
 ! D17   D(3,4,5,6)              0.4604         estimate D2E/DX2                !
 ! D18   D(3,4,5,11)          -179.9234         estimate D2E/DX2                !
 ! D19   D(13,4,5,6)          -179.383          estimate D2E/DX2                !
 ! D20   D(13,4,5,11)            0.2332         estimate D2E/DX2                !
 ! D21   D(3,4,13,12)          176.6394         estimate D2E/DX2                !
 ! D22   D(3,4,13,30)           -3.049          estimate D2E/DX2                !
 ! D23   D(5,4,13,12)           -3.5276         estimate D2E/DX2                !
 ! D24   D(5,4,13,30)          176.7839         estimate D2E/DX2                !
 ! D25   D(4,5,6,1)             -0.3994         estimate D2E/DX2                !
 ! D26   D(4,5,6,9)            179.9847         estimate D2E/DX2                !
 ! D27   D(11,5,6,1)          -179.9136         estimate D2E/DX2                !
 ! D28   D(11,5,6,9)             0.4705         estimate D2E/DX2                !
 ! D29   D(4,5,11,12)            2.5502         estimate D2E/DX2                !
 ! D30   D(4,5,11,14)          120.6808         estimate D2E/DX2                !
 ! D31   D(4,5,11,18)         -114.4355         estimate D2E/DX2                !
 ! D32   D(6,5,11,12)         -177.8957         estimate D2E/DX2                !
 ! D33   D(6,5,11,14)          -59.765          estimate D2E/DX2                !
 ! D34   D(6,5,11,18)           65.1187         estimate D2E/DX2                !
 ! D35   D(5,11,12,13)          -4.7573         estimate D2E/DX2                !
 ! D36   D(5,11,12,22)        -178.8481         estimate D2E/DX2                !
 ! D37   D(14,11,12,13)       -124.3718         estimate D2E/DX2                !
 ! D38   D(14,11,12,22)         61.5374         estimate D2E/DX2                !
 ! D39   D(18,11,12,13)        112.936          estimate D2E/DX2                !
 ! D40   D(18,11,12,22)        -61.1548         estimate D2E/DX2                !
 ! D41   D(5,11,14,15)         -56.7665         estimate D2E/DX2                !
 ! D42   D(5,11,14,16)        -176.8064         estimate D2E/DX2                !
 ! D43   D(5,11,14,17)          63.9958         estimate D2E/DX2                !
 ! D44   D(12,11,14,15)         55.625          estimate D2E/DX2                !
 ! D45   D(12,11,14,16)        -64.4149         estimate D2E/DX2                !
 ! D46   D(12,11,14,17)        176.3873         estimate D2E/DX2                !
 ! D47   D(18,11,14,15)        178.0611         estimate D2E/DX2                !
 ! D48   D(18,11,14,16)         58.0212         estimate D2E/DX2                !
 ! D49   D(18,11,14,17)        -61.1766         estimate D2E/DX2                !
 ! D50   D(5,11,18,19)          56.0783         estimate D2E/DX2                !
 ! D51   D(5,11,18,20)         -63.4493         estimate D2E/DX2                !
 ! D52   D(5,11,18,21)         177.7163         estimate D2E/DX2                !
 ! D53   D(12,11,18,19)        -55.215          estimate D2E/DX2                !
 ! D54   D(12,11,18,20)       -174.7426         estimate D2E/DX2                !
 ! D55   D(12,11,18,21)         66.423          estimate D2E/DX2                !
 ! D56   D(14,11,18,19)       -177.8975         estimate D2E/DX2                !
 ! D57   D(14,11,18,20)         62.5748         estimate D2E/DX2                !
 ! D58   D(14,11,18,21)        -56.2596         estimate D2E/DX2                !
 ! D59   D(11,12,13,4)           5.2776         estimate D2E/DX2                !
 ! D60   D(11,12,13,30)       -175.0523         estimate D2E/DX2                !
 ! D61   D(22,12,13,4)         179.1402         estimate D2E/DX2                !
 ! D62   D(22,12,13,30)         -1.1897         estimate D2E/DX2                !
 ! D63   D(11,12,22,34)       -140.3715         estimate D2E/DX2                !
 ! D64   D(11,12,22,35)         37.2912         estimate D2E/DX2                !
 ! D65   D(13,12,22,34)         46.5232         estimate D2E/DX2                !
 ! D66   D(13,12,22,35)       -135.8141         estimate D2E/DX2                !
 ! D67   D(4,13,30,31)        -159.9351         estimate D2E/DX2                !
 ! D68   D(4,13,30,32)          79.9512         estimate D2E/DX2                !
 ! D69   D(4,13,30,33)         -40.2657         estimate D2E/DX2                !
 ! D70   D(12,13,30,31)         20.4276         estimate D2E/DX2                !
 ! D71   D(12,13,30,32)        -99.6861         estimate D2E/DX2                !
 ! D72   D(12,13,30,33)        140.097          estimate D2E/DX2                !
 ! D73   D(12,22,34,23)         12.5826         estimate D2E/DX2                !
 ! D74   D(12,22,34,36)       -172.4072         estimate D2E/DX2                !
 ! D75   D(35,22,34,23)       -165.0199         estimate D2E/DX2                !
 ! D76   D(35,22,34,36)          9.9903         estimate D2E/DX2                !
 ! D77   D(29,23,24,25)       -176.7468         estimate D2E/DX2                !
 ! D78   D(29,23,24,26)          2.4908         estimate D2E/DX2                !
 ! D79   D(34,23,24,25)         -2.7695         estimate D2E/DX2                !
 ! D80   D(34,23,24,26)        176.4682         estimate D2E/DX2                !
 ! D81   D(24,23,29,28)         -3.7055         estimate D2E/DX2                !
 ! D82   D(24,23,29,37)        177.2205         estimate D2E/DX2                !
 ! D83   D(34,23,29,28)       -178.0298         estimate D2E/DX2                !
 ! D84   D(34,23,29,37)          2.8962         estimate D2E/DX2                !
 ! D85   D(24,23,34,22)         19.4811         estimate D2E/DX2                !
 ! D86   D(24,23,34,36)       -155.5523         estimate D2E/DX2                !
 ! D87   D(29,23,34,22)       -166.4057         estimate D2E/DX2                !
 ! D88   D(29,23,34,36)         18.5609         estimate D2E/DX2                !
 ! D89   D(23,24,26,27)          0.0531         estimate D2E/DX2                !
 ! D90   D(23,24,26,39)        179.5679         estimate D2E/DX2                !
 ! D91   D(25,24,26,27)        179.3058         estimate D2E/DX2                !
 ! D92   D(25,24,26,39)         -1.1794         estimate D2E/DX2                !
 ! D93   D(24,26,27,28)         -1.4672         estimate D2E/DX2                !
 ! D94   D(24,26,27,38)        179.234          estimate D2E/DX2                !
 ! D95   D(39,26,27,28)        179.0386         estimate D2E/DX2                !
 ! D96   D(39,26,27,38)         -0.2602         estimate D2E/DX2                !
 ! D97   D(26,27,28,29)          0.3394         estimate D2E/DX2                !
 ! D98   D(26,27,28,40)       -178.9749         estimate D2E/DX2                !
 ! D99   D(38,27,28,29)        179.6532         estimate D2E/DX2                !
 ! D100  D(38,27,28,40)          0.3389         estimate D2E/DX2                !
 ! D101  D(27,28,29,23)          2.2912         estimate D2E/DX2                !
 ! D102  D(27,28,29,37)       -178.6264         estimate D2E/DX2                !
 ! D103  D(40,28,29,23)       -178.393          estimate D2E/DX2                !
 ! D104  D(40,28,29,37)          0.6894         estimate D2E/DX2                !
 ! D105  D(27,28,40,41)        179.4651         estimate D2E/DX2                !
 ! D106  D(27,28,40,42)         -0.6127         estimate D2E/DX2                !
 ! D107  D(29,28,40,41)          0.1449         estimate D2E/DX2                !
 ! D108  D(29,28,40,42)       -179.9329         estimate D2E/DX2                !
 --------------------------------------------------------------------------------
 Trust Radius=3.00D-01 FncErr=1.00D-07 GrdErr=1.00D-06 EigMax=2.50D+02 EigMin=1.00D-04
 Number of steps in this run=    237 maximum allowed number of steps=    252.
 GradGradGradGradGradGradGradGradGradGradGradGradGradGradGradGradGradGrad

 Leave Link  103 at Sun Mar 10 13:15:42 2024, MaxMem=  2684354560 cpu:               0.5 elap:               0.0
 (Enter /s/ls4/groups/g0130/bin/g16/l202.exe)
                          Input orientation:                          
 ---------------------------------------------------------------------
 Center     Atomic      Atomic             Coordinates (Angstroms)
 Number     Number       Type             X           Y           Z
 ---------------------------------------------------------------------
      1          6           0       -2.412759    2.310881    0.604562
      2          6           0       -1.594445    1.227998    0.318248
      3          6           0       -0.278487    1.411953   -0.085967
      4          6           0        0.163372    2.711978   -0.187027
      5          6           0       -0.636743    3.805725    0.087860
      6          6           0       -1.938450    3.613111    0.492575
      7          1           0       -3.434492    2.139295    0.914083
      8          1           0       -1.985422    0.223766    0.405515
      9          1           0       -2.585147    4.451790    0.714036
     10          1           0        0.354166    0.568234   -0.319694
     11          6           0        0.167382    5.060189   -0.127671
     12          6           0        1.482474    4.484370   -0.617270
     13          7           0        1.448229    3.176730   -0.565411
     14          6           0       -0.445992    5.980253   -1.186224
     15          1           0       -0.563857    5.454239   -2.129930
     16          1           0        0.194658    6.845856   -1.350943
     17          1           0       -1.417848    6.330579   -0.840154
     18          6           0        0.378272    5.817676    1.191783
     19          1           0        0.848540    5.185742    1.944517
     20          1           0       -0.588615    6.142036    1.573425
     21          1           0        0.993854    6.702767    1.038757
     22          6           0        2.612554    5.287052   -0.944880
     23          6           0        3.472806    4.350342   -3.145983
     24          6           0        2.249958    3.780685   -3.693020
     25          8           0        1.137828    3.908857   -3.143433
     26          6           0        2.388170    3.060242   -4.936104
     27          6           0        3.576998    2.913175   -5.567536
     28          6           0        4.734454    3.504665   -5.022233
     29          6           0        4.665627    4.222869   -3.851732
     30          6           0        2.537683    2.269849   -0.851226
     31          1           0        3.477281    2.804085   -0.767823
     32          1           0        2.437106    1.870543   -1.858677
     33          1           0        2.512829    1.456970   -0.130222
     34          6           0        3.496747    5.155557   -1.960688
     35          1           0        2.743450    6.141413   -0.291580
     36          1           0        4.344808    5.831075   -1.907129
     37          1           0        5.565785    4.683513   -3.470117
     38          1           0        3.655718    2.358810   -6.490783
     39          1           0        1.485386    2.627538   -5.345793
     40          7           0        5.987426    3.370568   -5.696838
     41          8           0        6.981117    3.899204   -5.214153
     42          8           0        6.024010    2.727628   -6.737890
 ---------------------------------------------------------------------
                    Distance matrix (angstroms):
                    1          2          3          4          5
     1  C    0.000000
     2  C    1.387172   0.000000
     3  C    2.416613   1.388875   0.000000
     4  C    2.724692   2.355296   1.376779   0.000000
     5  C    2.378187   2.759520   2.426667   1.382761   0.000000
     6  C    1.390437   2.416090   2.816964   2.385698   1.376712
     7  H    1.081288   2.138049   3.389616   3.805922   3.359619
     8  H    2.139693   1.081185   2.137047   3.340602   3.840609
     9  H    2.150627   3.395729   3.898885   3.375385   2.146108
    10  H    3.398079   2.153913   1.080157   2.156303   3.410184
    11  C    3.840832   4.241293   3.675618   2.348964   1.505573
    12  C    4.624907   4.576743   3.580924   2.250891   2.334276
    13  N    4.126228   3.719714   2.515125   1.417754   2.273655
    14  C    4.532039   5.115301   4.701913   3.471504   2.527498
    15  H    4.558134   4.991672   4.538645   3.438565   2.764326
    16  H    5.584678   6.127595   5.599227   4.294721   3.464647
    17  H    4.385775   5.235399   5.104882   4.002637   2.801110
    18  C    4.520210   5.071471   4.634046   3.404799   2.509352
    19  H    4.549327   4.927135   4.431088   3.336531   2.749125
    20  H    4.352465   5.170583   5.022296   3.928101   2.769038
    21  H    5.575142   6.098485   5.556669   4.256599   3.457731
    22  C    6.042527   5.980823   4.910422   3.633708   3.717366
    23  C    7.270892   6.886724   5.663041   4.732020   5.257637
    24  C    6.509260   6.114402   5.001476   4.217578   4.756966
    25  O    5.404411   5.160964   4.193874   3.335029   3.687952
    26  C    7.369494   6.842993   5.775097   5.255925   5.911519
    27  C    8.621759   8.014118   6.867752   6.375202   7.108850
    28  C    9.174344   8.588301   7.340010   6.700922   7.419800
    29  C    8.580082   8.096078   6.821033   5.998596   6.618876
    30  C    5.160221   4.419005   3.041780   2.504794   3.649353
    31  H    6.067888   5.420886   4.063097   3.365680   4.319800
    32  H    5.457347   4.626583   3.275249   2.944876   4.120981
    33  H    5.052770   4.138025   2.792029   2.664248   3.934972
    34  C    7.042368   6.821986   5.637512   4.497592   4.806696
    35  H    6.485564   6.582618   5.616242   4.292872   4.126150
    36  H    8.022784   7.836794   6.649822   5.492897   5.735666
    37  H    9.267662   8.806883   7.504072   6.622061   7.204239
    38  H    9.336629   8.672131   7.576026   7.215161   7.987323
    39  H    7.120571   6.597380   5.679318   5.326135   5.951146
    40  N   10.554321   9.912448   8.635955   8.044337   8.805209
    41  O   11.163562  10.549079   9.229656   8.553546   9.281803
    42  O   11.192156  10.491846   9.257459   8.789831   9.597853
                    6          7          8          9         10
     6  C    0.000000
     7  H    2.141949   0.000000
     8  H    3.390789   2.455137   0.000000
     9  H    1.081964   2.471647   4.281477   0.000000
    10  H    3.897069   4.283033   2.473511   4.978973   0.000000
    11  C    2.629310   4.752934   5.320700   2.941945   4.499936
    12  C    3.700482   5.658708   5.587946   4.280068   4.086289
    13  N    3.574823   5.206356   4.631701   4.419377   2.839297
    14  C    3.263305   5.300507   6.167708   3.243944   5.539050
    15  H    3.486659   5.338109   5.983910   3.630242   5.290819
    16  H    4.289446   6.360251   7.189574   4.209871   6.363762
    17  H    3.071127   4.971022   6.258354   2.703320   6.051077
    18  C    3.273561   5.305166   6.123488   3.297839   5.462764
    19  H    3.514060   5.356025   5.917861   3.720615   5.166473
    20  H    3.063618   4.955370   6.192012   2.753474   5.961545
    21  H    4.294496   6.360116   7.159227   4.240470   6.315623
    22  C    5.057666   7.066179   6.971500   5.519580   5.268626
    23  C    6.562340   8.311657   7.709347   7.183930   5.658461
    24  C    5.923686   7.498836   6.883902   6.576532   5.029235
    25  O    4.771950   6.364032   5.994132   5.388450   4.443804
    26  C    6.963897   8.305193   7.463699   7.654696   5.626590
    27  C    8.224051   9.579732   8.593647   8.932945   6.589783
    28  C    8.657512  10.189984   9.240210   9.347641   7.065651
    29  C    7.928344   9.626329   8.851747   8.571603   6.664859
    30  C    4.862708   6.228984   5.120970   5.783970   2.818824
    31  H    5.619010   7.144464   6.154340   6.454756   3.867002
    32  H    5.264069   6.498931   5.234233   6.205218   2.898814
    33  H    4.985048   6.076740   4.694898   5.972527   2.342131
    34  C    6.159465   8.087288   7.744395   6.681233   5.797604
    35  H    5.378419   7.459058   7.607017   5.679792   6.063810
    36  H    7.082180   9.061236   8.767100   7.536393   6.792840
    37  H    8.553492  10.329533   9.588044   9.165071   7.349943
    38  H    9.035225  10.254331   9.161867   9.759016   7.224178
    39  H    6.839631   7.976818   7.134576   7.524538   5.548158
    40  N   10.059184  11.575528  10.521758  10.759060   8.276495
    41  O   10.592793  12.212185  11.202157  11.267750   8.886370
    42  O   10.791871  12.180398  11.020370  11.516142   8.831951
                   11         12         13         14         15
    11  C    0.000000
    12  C    1.516819   0.000000
    13  N    2.319397   1.309116   0.000000
    14  C    1.530778   2.506064   3.439945   0.000000
    15  H    2.167724   2.723281   3.418078   1.086813   0.000000
    16  H    2.164658   2.788075   3.956133   1.089420   1.766003
    17  H    2.152783   3.445291   4.270438   1.089494   1.777862
    18  C    1.535975   2.503924   3.347706   2.522055   3.471811
    19  H    2.184880   2.730668   3.270397   3.479742   4.320657
    20  H    2.153057   3.440409   4.185260   2.768064   3.766765
    21  H    2.177538   2.811131   3.900352   2.746949   3.745112
    22  C    2.588080   1.424327   2.439899   3.145390   3.394390
    23  C    4.532099   3.220835   3.483623   4.674853   4.306461
    24  C    4.322727   3.247221   3.284733   4.288388   3.627891
    25  O    3.370779   2.613713   2.697879   3.260342   2.512195
    26  C    5.661512   4.636890   4.472137   5.533582   4.724436
    27  C    6.769585   5.600073   5.442643   6.692331   5.951539
    28  C    6.872739   5.562274   5.547078   6.905108   6.343371
    29  C    5.899486   4.545612   4.716562   6.026772   5.641665
    30  C    3.732005   2.464205   1.446041   4.773012   4.625470
    31  H    4.056505   2.612523   2.072894   5.065094   5.020901
    32  H    4.280406   3.047049   2.087233   5.064994   4.682119
    33  H    4.299338   3.234810   2.068897   5.507254   5.426139
    34  C    3.801804   2.512481   3.171589   4.101842   4.075090
    35  H    2.798577   2.107587   3.246833   3.316459   3.845779
    36  H    4.605607   3.416183   4.151617   4.847033   4.928148
    37  H    6.360549   4.985160   5.259465   6.560424   6.321601
    38  H    7.743070   6.613559   6.375895   7.620841   6.812014
    39  H    5.906245   5.080036   4.811968   5.680927   4.746726
    40  N    8.230635   6.880201   6.853716   8.279189   7.744923
    41  O    8.581793   7.190885   7.262618   8.701547   8.298024
    42  O    9.134327   7.821361   7.696685   9.124773   8.489270
                   16         17         18         19         20
    16  H    0.000000
    17  H    1.768217   0.000000
    18  C    2.748876   2.760051   0.000000
    19  H    3.747479   3.768496   1.089543   0.000000
    20  H    3.108184   2.559011   1.088913   1.765680   0.000000
    21  H    2.523857   3.079795   1.088918   1.772818   1.761958
    22  C    2.905336   4.164619   3.136702   3.386831   4.161771
    23  C    4.493998   5.758184   5.526791   5.787734   6.479053
    24  C    4.370911   5.300340   5.613719   5.976620   6.431868
    25  O    3.567710   4.207292   4.797354   5.253699   5.496949
    26  C    5.656478   6.477475   7.013852   7.364180   7.793117
    27  C    6.684748   7.679535   8.022241   8.309030   8.875314
    28  C    6.726936   7.957788   7.933494   8.152420   8.876570
    29  C    5.755308   7.107792   6.808954   7.006695   7.792470
    30  C    5.165203   5.668851   4.628609   4.378563   5.535929
    31  H    5.239423   6.033546   4.746119   4.465351   5.758027
    32  H    5.480886   5.982473   5.396663   5.289459   6.259391
    33  H    5.992008   6.301292   5.031877   4.580189   5.871219
    34  C    3.759347   5.175859   4.483454   4.718531   5.491200
    35  H    2.848654   4.201561   2.810558   3.082875   3.818495
    36  H    4.308464   5.881848   5.033571   5.241710   6.045628
    37  H    6.165682   7.642032   7.066111   7.198812   8.089576
    38  H    7.650522   8.570043   9.040311   9.328777   9.867047
    39  H    5.951388   6.514757   7.358164   7.752329   8.032979
    40  N    8.032471   9.337405   9.214339   9.385804  10.187349
    41  O    8.346447   9.776812   9.397558   9.513687  10.411645
    42  O    8.942055  10.156072  10.212858  10.402500  11.156297
                   21         22         23         24         25
    21  H    0.000000
    22  C    2.925620   0.000000
    23  C    5.402884   2.542109   0.000000
    24  C    5.701410   3.154821   1.455719   0.000000
    25  O    5.031637   2.984605   2.376350   1.247120   0.000000
    26  C    7.135199   4.575904   2.458724   1.443397   2.344605
    27  C    8.042185   5.285299   2.817840   2.455079   3.580112
    28  C    7.807403   4.929926   2.413967   2.831203   4.077864
    29  C    6.599143   3.714483   1.391816   2.460929   3.611877
    30  C    5.060258   3.019585   3.235555   3.231285   3.146451
    31  H    4.962949   2.635190   2.836649   3.319163   3.512418
    32  H    5.816227   3.540952   2.979805   2.654898   2.737416
    33  H    5.584996   3.917032   4.288120   4.261723   4.120900
    34  C    4.201786   1.353128   1.433132   2.538844   2.918500
    35  H    2.268480   1.083451   3.447827   4.169696   3.961741
    36  H    4.546095   2.054894   2.118423   3.432477   3.938030
    37  H    6.731261   3.932258   2.143974   3.443761   4.507063
    38  H    9.091175   6.357660   3.897094   3.438803   4.466226
    39  H    7.590229   5.264177   3.428856   2.155452   2.571569
    40  N    9.022614   6.135453   3.713506   4.260534   5.507107
    41  O    9.099789   6.263957   4.097450   4.971092   6.199355
    42  O   10.078712   7.193584   4.695065   4.962220   6.179822
                   26         27         28         29         30
    26  C    0.000000
    27  C    1.354122   0.000000
    28  C    2.389556   1.409581   0.000000
    29  C    2.777476   2.417518   1.375001   0.000000
    30  C    4.163328   4.872127   4.873179   4.164789   0.000000
    31  H    4.315825   4.801987   4.491247   3.596610   1.084070
    32  H    3.299748   4.017719   4.237481   3.804209   1.088356
    33  H    5.067793   5.728645   5.749822   5.112179   1.086847
    34  C    3.804258   4.247830   3.691940   2.410857   3.236977
    35  H    5.584929   6.241156   5.770235   4.477751   3.917212
    36  H    4.547596   4.743653   3.907413   2.543763   4.130734
    37  H    3.857637   3.389475   2.118929   1.080790   4.674801
    38  H    2.125021   1.079771   2.152509   3.385148   5.750002
    39  H    1.081710   2.122639   3.380900   3.858916   4.629946
    40  N    3.691837   2.456846   1.429340   2.424456   6.049154
    41  O    4.677214   3.561623   2.289102   2.706001   6.436927
    42  O    4.071412   2.718828   2.282591   3.522905   6.856883
                   31         32         33         34         35
    31  H    0.000000
    32  H    1.772971   0.000000
    33  H    1.775225   1.778858   0.000000
    34  C    2.636802   3.453196   4.242434   0.000000
    35  H    3.450083   4.559602   4.692891   2.079733   0.000000
    36  H    3.348625   4.396304   5.064221   1.085542   2.295791
    37  H    3.898267   4.505349   5.557519   2.604250   4.493789
    38  H    5.743029   4.814543   6.525048   5.326239   7.319183
    39  H    4.995660   3.693073   5.443165   4.679250   6.282922
    40  N    5.560298   5.439331   6.835342   4.832027   6.886057
    41  O    5.765934   6.001893   7.195586   4.929938   6.871466
    42  O    6.491023   6.116142   7.589746   5.924825   7.998182
                   36         37         38         39         40
    36  H    0.000000
    37  H    2.291421   0.000000
    38  H    5.791490   4.263453   0.000000
    39  H    5.501213   4.939115   2.468513   0.000000
    40  N    4.807721   2.619140   2.662868   4.576428   0.000000
    41  O    4.649587   2.379069   3.880835   5.642475   1.224689
    42  O    5.982253   3.835857   2.409543   4.748374   1.224132
                   41         42
    41  O    0.000000
    42  O    2.147189   0.000000
 Stoichiometry    C19H18N2O3
 Framework group  C1[X(C19H18N2O3)]
 Deg. of freedom   120
 Full point group                 C1      NOp   1
 RotChk:  IX=0 Diff= 3.78D-15
 Largest Abelian subgroup         C1      NOp   1
 Largest concise Abelian subgroup C1      NOp   1
                         Standard orientation:                         
 ---------------------------------------------------------------------
 Center     Atomic      Atomic             Coordinates (Angstroms)
 Number     Number       Type             X           Y           Z
 ---------------------------------------------------------------------
      1          6           0        5.048765   -1.654440    0.302766
      2          6           0        4.250090   -2.506008   -0.446365
      3          6           0        3.007711   -2.096681   -0.913186
      4          6           0        2.616561   -0.815713   -0.594374
      5          6           0        3.394124    0.047405    0.155593
      6          6           0        4.626325   -0.365796    0.609776
      7          1           0        6.010390   -1.999848    0.656540
      8          1           0        4.595042   -3.506399   -0.668146
      9          1           0        5.254217    0.290109    1.198153
     10          1           0        2.381861   -2.764670   -1.486633
     11          6           0        2.658603    1.352065    0.309288
     12          6           0        1.357549    1.040557   -0.405528
     13          7           0        1.415142   -0.150278   -0.946249
     14          6           0        2.396478    1.713275    1.773563
     15          1           0        1.844013    0.920661    2.271268
     16          1           0        1.814938    2.632283    1.837365
     17          1           0        3.347156    1.869996    2.282134
     18          6           0        3.397127    2.493059   -0.406208
     19          1           0        3.558451    2.265970   -1.459540
     20          1           0        4.368149    2.637890    0.064826
     21          1           0        2.842003    3.426491   -0.326943
     22          6           0        0.305183    1.987888   -0.559794
     23          6           0       -1.819003    0.715674    0.016074
     24          6           0       -1.289316   -0.302296    0.911778
     25          8           0       -0.098131   -0.327165    1.280243
     26          6           0       -2.233282   -1.291197    1.374810
     27          6           0       -3.536355   -1.286803    1.006532
     28          6           0       -4.018998   -0.267274    0.161229
     29          6           0       -3.175234    0.717131   -0.296632
     30          6           0        0.417433   -0.766354   -1.792453
     31          1           0       -0.217213    0.004592   -2.214444
     32          1           0       -0.190614   -1.457106   -1.211368
     33          1           0        0.921656   -1.304035   -2.591136
     34          6           0       -1.033391    1.809495   -0.474069
     35          1           0        0.652334    2.998752   -0.737297
     36          1           0       -1.620497    2.675852   -0.762395
     37          1           0       -3.579307    1.498057   -0.925113
     38          1           0       -4.219857   -2.045474    1.357455
     39          1           0       -1.846203   -2.055569    2.035115
     40          7           0       -5.398493   -0.246200   -0.212353
     41          8           0       -5.802975    0.652442   -0.939470
     42          8           0       -6.130806   -1.132294    0.208424
 ---------------------------------------------------------------------
 Rotational constants (GHZ):           0.6042930           0.1251698           0.1156792
 Leave Link  202 at Sun Mar 10 13:15:42 2024, MaxMem=  2684354560 cpu:               0.5 elap:               0.0
 (Enter /s/ls4/groups/g0130/bin/g16/l301.exe)
 Standard basis: def2TZVP (5D, 7F)
 Ernie: Thresh=  0.10000D-02 Tol=  0.10000D-05 Strict=F.
 AO basis set in the form of general basis input (Overlap normalization):
      1 0
 S   6 1.00       0.000000000000
      0.1357534968D+05  0.6064550360D-03
      0.2035233368D+04  0.4697908888D-02
      0.4632256236D+03  0.2433247765D-01
      0.1312001960D+03  0.9739996831D-01
      0.4285301589D+02  0.3019558425D+00
      0.1558418577D+02  0.6623360914D+00
 S   2 1.00       0.000000000000
      0.6206713851D+01  0.6559530854D+00
      0.2576489653D+01  0.3758563329D+00
 S   1 1.00       0.000000000000
      0.5769633942D+00  0.1000000000D+01
 S   1 1.00       0.000000000000
      0.2297283136D+00  0.1000000000D+01
 S   1 1.00       0.000000000000
      0.9516444003D-01  0.1000000000D+01
 P   4 1.00       0.000000000000
      0.3469723224D+02  0.1132722000D-01
      0.7958262283D+01  0.7616965920D-01
      0.2378082688D+01  0.3019225220D+00
      0.8143320818D+00  0.7278502735D+00
 P   1 1.00       0.000000000000
      0.2888754725D+00  0.1000000000D+01
 P   1 1.00       0.000000000000
      0.1005682367D+00  0.1000000000D+01
 D   1 1.00       0.000000000000
      0.1097000000D+01  0.1000000000D+01
 D   1 1.00       0.000000000000
      0.3180000000D+00  0.1000000000D+01
 F   1 1.00       0.000000000000
      0.7610000000D+00  0.1000000000D+01
 ****
      2 0
 S   6 1.00       0.000000000000
      0.1357534968D+05  0.6064550360D-03
      0.2035233368D+04  0.4697908888D-02
      0.4632256236D+03  0.2433247765D-01
      0.1312001960D+03  0.9739996831D-01
      0.4285301589D+02  0.3019558425D+00
      0.1558418577D+02  0.6623360914D+00
 S   2 1.00       0.000000000000
      0.6206713851D+01  0.6559530854D+00
      0.2576489653D+01  0.3758563329D+00
 S   1 1.00       0.000000000000
      0.5769633942D+00  0.1000000000D+01
 S   1 1.00       0.000000000000
      0.2297283136D+00  0.1000000000D+01
 S   1 1.00       0.000000000000
      0.9516444003D-01  0.1000000000D+01
 P   4 1.00       0.000000000000
      0.3469723224D+02  0.1132722000D-01
      0.7958262283D+01  0.7616965920D-01
      0.2378082688D+01  0.3019225220D+00
      0.8143320818D+00  0.7278502735D+00
 P   1 1.00       0.000000000000
      0.2888754725D+00  0.1000000000D+01
 P   1 1.00       0.000000000000
      0.1005682367D+00  0.1000000000D+01
 D   1 1.00       0.000000000000
      0.1097000000D+01  0.1000000000D+01
 D   1 1.00       0.000000000000
      0.3180000000D+00  0.1000000000D+01
 F   1 1.00       0.000000000000
      0.7610000000D+00  0.1000000000D+01
 ****
      3 0
 S   6 1.00       0.000000000000
      0.1357534968D+05  0.6064550360D-03
      0.2035233368D+04  0.4697908888D-02
      0.4632256236D+03  0.2433247765D-01
      0.1312001960D+03  0.9739996831D-01
      0.4285301589D+02  0.3019558425D+00
      0.1558418577D+02  0.6623360914D+00
 S   2 1.00       0.000000000000
      0.6206713851D+01  0.6559530854D+00
      0.2576489653D+01  0.3758563329D+00
 S   1 1.00       0.000000000000
      0.5769633942D+00  0.1000000000D+01
 S   1 1.00       0.000000000000
      0.2297283136D+00  0.1000000000D+01
 S   1 1.00       0.000000000000
      0.9516444003D-01  0.1000000000D+01
 P   4 1.00       0.000000000000
      0.3469723224D+02  0.1132722000D-01
      0.7958262283D+01  0.7616965920D-01
      0.2378082688D+01  0.3019225220D+00
      0.8143320818D+00  0.7278502735D+00
 P   1 1.00       0.000000000000
      0.2888754725D+00  0.1000000000D+01
 P   1 1.00       0.000000000000
      0.1005682367D+00  0.1000000000D+01
 D   1 1.00       0.000000000000
      0.1097000000D+01  0.1000000000D+01
 D   1 1.00       0.000000000000
      0.3180000000D+00  0.1000000000D+01
 F   1 1.00       0.000000000000
      0.7610000000D+00  0.1000000000D+01
 ****
      4 0
 S   6 1.00       0.000000000000
      0.1357534968D+05  0.6064550360D-03
      0.2035233368D+04  0.4697908888D-02
      0.4632256236D+03  0.2433247765D-01
      0.1312001960D+03  0.9739996831D-01
      0.4285301589D+02  0.3019558425D+00
      0.1558418577D+02  0.6623360914D+00
 S   2 1.00       0.000000000000
      0.6206713851D+01  0.6559530854D+00
      0.2576489653D+01  0.3758563329D+00
 S   1 1.00       0.000000000000
      0.5769633942D+00  0.1000000000D+01
 S   1 1.00       0.000000000000
      0.2297283136D+00  0.1000000000D+01
 S   1 1.00       0.000000000000
      0.9516444003D-01  0.1000000000D+01
 P   4 1.00       0.000000000000
      0.3469723224D+02  0.1132722000D-01
      0.7958262283D+01  0.7616965920D-01
      0.2378082688D+01  0.3019225220D+00
      0.8143320818D+00  0.7278502735D+00
 P   1 1.00       0.000000000000
      0.2888754725D+00  0.1000000000D+01
 P   1 1.00       0.000000000000
      0.1005682367D+00  0.1000000000D+01
 D   1 1.00       0.000000000000
      0.1097000000D+01  0.1000000000D+01
 D   1 1.00       0.000000000000
      0.3180000000D+00  0.1000000000D+01
 F   1 1.00       0.000000000000
      0.7610000000D+00  0.1000000000D+01
 ****
      5 0
 S   6 1.00       0.000000000000
      0.1357534968D+05  0.6064550360D-03
      0.2035233368D+04  0.4697908888D-02
      0.4632256236D+03  0.2433247765D-01
      0.1312001960D+03  0.9739996831D-01
      0.4285301589D+02  0.3019558425D+00
      0.1558418577D+02  0.6623360914D+00
 S   2 1.00       0.000000000000
      0.6206713851D+01  0.6559530854D+00
      0.2576489653D+01  0.3758563329D+00
 S   1 1.00       0.000000000000
      0.5769633942D+00  0.1000000000D+01
 S   1 1.00       0.000000000000
      0.2297283136D+00  0.1000000000D+01
 S   1 1.00       0.000000000000
      0.9516444003D-01  0.1000000000D+01
 P   4 1.00       0.000000000000
      0.3469723224D+02  0.1132722000D-01
      0.7958262283D+01  0.7616965920D-01
      0.2378082688D+01  0.3019225220D+00
      0.8143320818D+00  0.7278502735D+00
 P   1 1.00       0.000000000000
      0.2888754725D+00  0.1000000000D+01
 P   1 1.00       0.000000000000
      0.1005682367D+00  0.1000000000D+01
 D   1 1.00       0.000000000000
      0.1097000000D+01  0.1000000000D+01
 D   1 1.00       0.000000000000
      0.3180000000D+00  0.1000000000D+01
 F   1 1.00       0.000000000000
      0.7610000000D+00  0.1000000000D+01
 ****
      6 0
 S   6 1.00       0.000000000000
      0.1357534968D+05  0.6064550360D-03
      0.2035233368D+04  0.4697908888D-02
      0.4632256236D+03  0.2433247765D-01
      0.1312001960D+03  0.9739996831D-01
      0.4285301589D+02  0.3019558425D+00
      0.1558418577D+02  0.6623360914D+00
 S   2 1.00       0.000000000000
      0.6206713851D+01  0.6559530854D+00
      0.2576489653D+01  0.3758563329D+00
 S   1 1.00       0.000000000000
      0.5769633942D+00  0.1000000000D+01
 S   1 1.00       0.000000000000
      0.2297283136D+00  0.1000000000D+01
 S   1 1.00       0.000000000000
      0.9516444003D-01  0.1000000000D+01
 P   4 1.00       0.000000000000
      0.3469723224D+02  0.1132722000D-01
      0.7958262283D+01  0.7616965920D-01
      0.2378082688D+01  0.3019225220D+00
      0.8143320818D+00  0.7278502735D+00
 P   1 1.00       0.000000000000
      0.2888754725D+00  0.1000000000D+01
 P   1 1.00       0.000000000000
      0.1005682367D+00  0.1000000000D+01
 D   1 1.00       0.000000000000
      0.1097000000D+01  0.1000000000D+01
 D   1 1.00       0.000000000000
      0.3180000000D+00  0.1000000000D+01
 F   1 1.00       0.000000000000
      0.7610000000D+00  0.1000000000D+01
 ****
      7 0
 S   3 1.00       0.000000000000
      0.3406134100D+02  0.2543930721D-01
      0.5123574600D+01  0.1900859489D+00
      0.1164662600D+01  0.8524411301D+00
 S   1 1.00       0.000000000000
      0.3272304100D+00  0.1000000000D+01
 S   1 1.00       0.000000000000
      0.1030724100D+00  0.1000000000D+01
 P   1 1.00       0.000000000000
      0.8000000000D+00  0.1000000000D+01
 ****
      8 0
 S   3 1.00       0.000000000000
      0.3406134100D+02  0.2543930721D-01
      0.5123574600D+01  0.1900859489D+00
      0.1164662600D+01  0.8524411301D+00
 S   1 1.00       0.000000000000
      0.3272304100D+00  0.1000000000D+01
 S   1 1.00       0.000000000000
      0.1030724100D+00  0.1000000000D+01
 P   1 1.00       0.000000000000
      0.8000000000D+00  0.1000000000D+01
 ****
      9 0
 S   3 1.00       0.000000000000
      0.3406134100D+02  0.2543930721D-01
      0.5123574600D+01  0.1900859489D+00
      0.1164662600D+01  0.8524411301D+00
 S   1 1.00       0.000000000000
      0.3272304100D+00  0.1000000000D+01
 S   1 1.00       0.000000000000
      0.1030724100D+00  0.1000000000D+01
 P   1 1.00       0.000000000000
      0.8000000000D+00  0.1000000000D+01
 ****
     10 0
 S   3 1.00       0.000000000000
      0.3406134100D+02  0.2543930721D-01
      0.5123574600D+01  0.1900859489D+00
      0.1164662600D+01  0.8524411301D+00
 S   1 1.00       0.000000000000
      0.3272304100D+00  0.1000000000D+01
 S   1 1.00       0.000000000000
      0.1030724100D+00  0.1000000000D+01
 P   1 1.00       0.000000000000
      0.8000000000D+00  0.1000000000D+01
 ****
     11 0
 S   6 1.00       0.000000000000
      0.1357534968D+05  0.6064550360D-03
      0.2035233368D+04  0.4697908888D-02
      0.4632256236D+03  0.2433247765D-01
      0.1312001960D+03  0.9739996831D-01
      0.4285301589D+02  0.3019558425D+00
      0.1558418577D+02  0.6623360914D+00
 S   2 1.00       0.000000000000
      0.6206713851D+01  0.6559530854D+00
      0.2576489653D+01  0.3758563329D+00
 S   1 1.00       0.000000000000
      0.5769633942D+00  0.1000000000D+01
 S   1 1.00       0.000000000000
      0.2297283136D+00  0.1000000000D+01
 S   1 1.00       0.000000000000
      0.9516444003D-01  0.1000000000D+01
 P   4 1.00       0.000000000000
      0.3469723224D+02  0.1132722000D-01
      0.7958262283D+01  0.7616965920D-01
      0.2378082688D+01  0.3019225220D+00
      0.8143320818D+00  0.7278502735D+00
 P   1 1.00       0.000000000000
      0.2888754725D+00  0.1000000000D+01
 P   1 1.00       0.000000000000
      0.1005682367D+00  0.1000000000D+01
 D   1 1.00       0.000000000000
      0.1097000000D+01  0.1000000000D+01
 D   1 1.00       0.000000000000
      0.3180000000D+00  0.1000000000D+01
 F   1 1.00       0.000000000000
      0.7610000000D+00  0.1000000000D+01
 ****
     12 0
 S   6 1.00       0.000000000000
      0.1357534968D+05  0.6064550360D-03
      0.2035233368D+04  0.4697908888D-02
      0.4632256236D+03  0.2433247765D-01
      0.1312001960D+03  0.9739996831D-01
      0.4285301589D+02  0.3019558425D+00
      0.1558418577D+02  0.6623360914D+00
 S   2 1.00       0.000000000000
      0.6206713851D+01  0.6559530854D+00
      0.2576489653D+01  0.3758563329D+00
 S   1 1.00       0.000000000000
      0.5769633942D+00  0.1000000000D+01
 S   1 1.00       0.000000000000
      0.2297283136D+00  0.1000000000D+01
 S   1 1.00       0.000000000000
      0.9516444003D-01  0.1000000000D+01
 P   4 1.00       0.000000000000
      0.3469723224D+02  0.1132722000D-01
      0.7958262283D+01  0.7616965920D-01
      0.2378082688D+01  0.3019225220D+00
      0.8143320818D+00  0.7278502735D+00
 P   1 1.00       0.000000000000
      0.2888754725D+00  0.1000000000D+01
 P   1 1.00       0.000000000000
      0.1005682367D+00  0.1000000000D+01
 D   1 1.00       0.000000000000
      0.1097000000D+01  0.1000000000D+01
 D   1 1.00       0.000000000000
      0.3180000000D+00  0.1000000000D+01
 F   1 1.00       0.000000000000
      0.7610000000D+00  0.1000000000D+01
 ****
     13 0
 S   6 1.00       0.000000000000
      0.1973080065D+05  0.5862640263D-03
      0.2957895874D+04  0.4542882059D-02
      0.6732213360D+03  0.2355841345D-01
      0.1906824949D+03  0.9470919329D-01
      0.6229544190D+02  0.2971978491D+00
      0.2265416118D+02  0.6691624690D+00
 S   2 1.00       0.000000000000
      0.8979147743D+01  0.6459668363D+00
      0.3686300237D+01  0.3870057439D+00
 S   1 1.00       0.000000000000
      0.8466007680D+00  0.1000000000D+01
 S   1 1.00       0.000000000000
      0.3364713377D+00  0.1000000000D+01
 S   1 1.00       0.000000000000
      0.1364765367D+00  0.1000000000D+01
 P   4 1.00       0.000000000000
      0.4920038051D+02  0.1144882510D-01
      0.1134679054D+02  0.7842233797D-01
      0.3427397241D+01  0.3081809474D+00
      0.1178552513D+01  0.7202719637D+00
 P   1 1.00       0.000000000000
      0.4164220497D+00  0.1000000000D+01
 P   1 1.00       0.000000000000
      0.1426082601D+00  0.1000000000D+01
 D   1 1.00       0.000000000000
      0.1654000000D+01  0.1000000000D+01
 D   1 1.00       0.000000000000
      0.4690000000D+00  0.1000000000D+01
 F   1 1.00       0.000000000000
      0.1093000000D+01  0.1000000000D+01
 ****
     14 0
 S   6 1.00       0.000000000000
      0.1357534968D+05  0.6064550360D-03
      0.2035233368D+04  0.4697908888D-02
      0.4632256236D+03  0.2433247765D-01
      0.1312001960D+03  0.9739996831D-01
      0.4285301589D+02  0.3019558425D+00
      0.1558418577D+02  0.6623360914D+00
 S   2 1.00       0.000000000000
      0.6206713851D+01  0.6559530854D+00
      0.2576489653D+01  0.3758563329D+00
 S   1 1.00       0.000000000000
      0.5769633942D+00  0.1000000000D+01
 S   1 1.00       0.000000000000
      0.2297283136D+00  0.1000000000D+01
 S   1 1.00       0.000000000000
      0.9516444003D-01  0.1000000000D+01
 P   4 1.00       0.000000000000
      0.3469723224D+02  0.1132722000D-01
      0.7958262283D+01  0.7616965920D-01
      0.2378082688D+01  0.3019225220D+00
      0.8143320818D+00  0.7278502735D+00
 P   1 1.00       0.000000000000
      0.2888754725D+00  0.1000000000D+01
 P   1 1.00       0.000000000000
      0.1005682367D+00  0.1000000000D+01
 D   1 1.00       0.000000000000
      0.1097000000D+01  0.1000000000D+01
 D   1 1.00       0.000000000000
      0.3180000000D+00  0.1000000000D+01
 F   1 1.00       0.000000000000
      0.7610000000D+00  0.1000000000D+01
 ****
     15 0
 S   3 1.00       0.000000000000
      0.3406134100D+02  0.2543930721D-01
      0.5123574600D+01  0.1900859489D+00
      0.1164662600D+01  0.8524411301D+00
 S   1 1.00       0.000000000000
      0.3272304100D+00  0.1000000000D+01
 S   1 1.00       0.000000000000
      0.1030724100D+00  0.1000000000D+01
 P   1 1.00       0.000000000000
      0.8000000000D+00  0.1000000000D+01
 ****
     16 0
 S   3 1.00       0.000000000000
      0.3406134100D+02  0.2543930721D-01
      0.5123574600D+01  0.1900859489D+00
      0.1164662600D+01  0.8524411301D+00
 S   1 1.00       0.000000000000
      0.3272304100D+00  0.1000000000D+01
 S   1 1.00       0.000000000000
      0.1030724100D+00  0.1000000000D+01
 P   1 1.00       0.000000000000
      0.8000000000D+00  0.1000000000D+01
 ****
     17 0
 S   3 1.00       0.000000000000
      0.3406134100D+02  0.2543930721D-01
      0.5123574600D+01  0.1900859489D+00
      0.1164662600D+01  0.8524411301D+00
 S   1 1.00       0.000000000000
      0.3272304100D+00  0.1000000000D+01
 S   1 1.00       0.000000000000
      0.1030724100D+00  0.1000000000D+01
 P   1 1.00       0.000000000000
      0.8000000000D+00  0.1000000000D+01
 ****
     18 0
 S   6 1.00       0.000000000000
      0.1357534968D+05  0.6064550360D-03
      0.2035233368D+04  0.4697908888D-02
      0.4632256236D+03  0.2433247765D-01
      0.1312001960D+03  0.9739996831D-01
      0.4285301589D+02  0.3019558425D+00
      0.1558418577D+02  0.6623360914D+00
 S   2 1.00       0.000000000000
      0.6206713851D+01  0.6559530854D+00
      0.2576489653D+01  0.3758563329D+00
 S   1 1.00       0.000000000000
      0.5769633942D+00  0.1000000000D+01
 S   1 1.00       0.000000000000
      0.2297283136D+00  0.1000000000D+01
 S   1 1.00       0.000000000000
      0.9516444003D-01  0.1000000000D+01
 P   4 1.00       0.000000000000
      0.3469723224D+02  0.1132722000D-01
      0.7958262283D+01  0.7616965920D-01
      0.2378082688D+01  0.3019225220D+00
      0.8143320818D+00  0.7278502735D+00
 P   1 1.00       0.000000000000
      0.2888754725D+00  0.1000000000D+01
 P   1 1.00       0.000000000000
      0.1005682367D+00  0.1000000000D+01
 D   1 1.00       0.000000000000
      0.1097000000D+01  0.1000000000D+01
 D   1 1.00       0.000000000000
      0.3180000000D+00  0.1000000000D+01
 F   1 1.00       0.000000000000
      0.7610000000D+00  0.1000000000D+01
 ****
     19 0
 S   3 1.00       0.000000000000
      0.3406134100D+02  0.2543930721D-01
      0.5123574600D+01  0.1900859489D+00
      0.1164662600D+01  0.8524411301D+00
 S   1 1.00       0.000000000000
      0.3272304100D+00  0.1000000000D+01
 S   1 1.00       0.000000000000
      0.1030724100D+00  0.1000000000D+01
 P   1 1.00       0.000000000000
      0.8000000000D+00  0.1000000000D+01
 ****
     20 0
 S   3 1.00       0.000000000000
      0.3406134100D+02  0.2543930721D-01
      0.5123574600D+01  0.1900859489D+00
      0.1164662600D+01  0.8524411301D+00
 S   1 1.00       0.000000000000
      0.3272304100D+00  0.1000000000D+01
 S   1 1.00       0.000000000000
      0.1030724100D+00  0.1000000000D+01
 P   1 1.00       0.000000000000
      0.8000000000D+00  0.1000000000D+01
 ****
     21 0
 S   3 1.00       0.000000000000
      0.3406134100D+02  0.2543930721D-01
      0.5123574600D+01  0.1900859489D+00
      0.1164662600D+01  0.8524411301D+00
 S   1 1.00       0.000000000000
      0.3272304100D+00  0.1000000000D+01
 S   1 1.00       0.000000000000
      0.1030724100D+00  0.1000000000D+01
 P   1 1.00       0.000000000000
      0.8000000000D+00  0.1000000000D+01
 ****
     22 0
 S   6 1.00       0.000000000000
      0.1357534968D+05  0.6064550360D-03
      0.2035233368D+04  0.4697908888D-02
      0.4632256236D+03  0.2433247765D-01
      0.1312001960D+03  0.9739996831D-01
      0.4285301589D+02  0.3019558425D+00
      0.1558418577D+02  0.6623360914D+00
 S   2 1.00       0.000000000000
      0.6206713851D+01  0.6559530854D+00
      0.2576489653D+01  0.3758563329D+00
 S   1 1.00       0.000000000000
      0.5769633942D+00  0.1000000000D+01
 S   1 1.00       0.000000000000
      0.2297283136D+00  0.1000000000D+01
 S   1 1.00       0.000000000000
      0.9516444003D-01  0.1000000000D+01
 P   4 1.00       0.000000000000
      0.3469723224D+02  0.1132722000D-01
      0.7958262283D+01  0.7616965920D-01
      0.2378082688D+01  0.3019225220D+00
      0.8143320818D+00  0.7278502735D+00
 P   1 1.00       0.000000000000
      0.2888754725D+00  0.1000000000D+01
 P   1 1.00       0.000000000000
      0.1005682367D+00  0.1000000000D+01
 D   1 1.00       0.000000000000
      0.1097000000D+01  0.1000000000D+01
 D   1 1.00       0.000000000000
      0.3180000000D+00  0.1000000000D+01
 F   1 1.00       0.000000000000
      0.7610000000D+00  0.1000000000D+01
 ****
     23 0
 S   6 1.00       0.000000000000
      0.1357534968D+05  0.6064550360D-03
      0.2035233368D+04  0.4697908888D-02
      0.4632256236D+03  0.2433247765D-01
      0.1312001960D+03  0.9739996831D-01
      0.4285301589D+02  0.3019558425D+00
      0.1558418577D+02  0.6623360914D+00
 S   2 1.00       0.000000000000
      0.6206713851D+01  0.6559530854D+00
      0.2576489653D+01  0.3758563329D+00
 S   1 1.00       0.000000000000
      0.5769633942D+00  0.1000000000D+01
 S   1 1.00       0.000000000000
      0.2297283136D+00  0.1000000000D+01
 S   1 1.00       0.000000000000
      0.9516444003D-01  0.1000000000D+01
 P   4 1.00       0.000000000000
      0.3469723224D+02  0.1132722000D-01
      0.7958262283D+01  0.7616965920D-01
      0.2378082688D+01  0.3019225220D+00
      0.8143320818D+00  0.7278502735D+00
 P   1 1.00       0.000000000000
      0.2888754725D+00  0.1000000000D+01
 P   1 1.00       0.000000000000
      0.1005682367D+00  0.1000000000D+01
 D   1 1.00       0.000000000000
      0.1097000000D+01  0.1000000000D+01
 D   1 1.00       0.000000000000
      0.3180000000D+00  0.1000000000D+01
 F   1 1.00       0.000000000000
      0.7610000000D+00  0.1000000000D+01
 ****
     24 0
 S   6 1.00       0.000000000000
      0.1357534968D+05  0.6064550360D-03
      0.2035233368D+04  0.4697908888D-02
      0.4632256236D+03  0.2433247765D-01
      0.1312001960D+03  0.9739996831D-01
      0.4285301589D+02  0.3019558425D+00
      0.1558418577D+02  0.6623360914D+00
 S   2 1.00       0.000000000000
      0.6206713851D+01  0.6559530854D+00
      0.2576489653D+01  0.3758563329D+00
 S   1 1.00       0.000000000000
      0.5769633942D+00  0.1000000000D+01
 S   1 1.00       0.000000000000
      0.2297283136D+00  0.1000000000D+01
 S   1 1.00       0.000000000000
      0.9516444003D-01  0.1000000000D+01
 P   4 1.00       0.000000000000
      0.3469723224D+02  0.1132722000D-01
      0.7958262283D+01  0.7616965920D-01
      0.2378082688D+01  0.3019225220D+00
      0.8143320818D+00  0.7278502735D+00
 P   1 1.00       0.000000000000
      0.2888754725D+00  0.1000000000D+01
 P   1 1.00       0.000000000000
      0.1005682367D+00  0.1000000000D+01
 D   1 1.00       0.000000000000
      0.1097000000D+01  0.1000000000D+01
 D   1 1.00       0.000000000000
      0.3180000000D+00  0.1000000000D+01
 F   1 1.00       0.000000000000
      0.7610000000D+00  0.1000000000D+01
 ****
     25 0
 S   6 1.00       0.000000000000
      0.2703238263D+05  0.5722733521D-03
      0.4052387139D+04  0.4435323349D-02
      0.9223272271D+03  0.2302010771D-01
      0.2612407099D+03  0.9282249067D-01
      0.8535464135D+02  0.2937850001D+00
      0.3103503524D+02  0.6740160450D+00
 S   2 1.00       0.000000000000
      0.1226086073D+02  0.6383993703D+00
      0.4998707601D+01  0.3953458713D+00
 S   1 1.00       0.000000000000
      0.1170310816D+01  0.1000000000D+01
 S   1 1.00       0.000000000000
      0.4647474099D+00  0.1000000000D+01
 S   1 1.00       0.000000000000
      0.1850453636D+00  0.1000000000D+01
 P   4 1.00       0.000000000000
      0.6327495480D+02  0.1201833222D-01
      0.1462704938D+02  0.8300542179D-01
      0.4450122346D+01  0.3199174393D+00
      0.1527579965D+01  0.7071554292D+00
 P   1 1.00       0.000000000000
      0.5293511794D+00  0.1000000000D+01
 P   1 1.00       0.000000000000
      0.1747842127D+00  0.1000000000D+01
 D   1 1.00       0.000000000000
      0.2314000000D+01  0.1000000000D+01
 D   1 1.00       0.000000000000
      0.6450000000D+00  0.1000000000D+01
 F   1 1.00       0.000000000000
      0.1428000000D+01  0.1000000000D+01
 ****
     26 0
 S   6 1.00       0.000000000000
      0.1357534968D+05  0.6064550360D-03
      0.2035233368D+04  0.4697908888D-02
      0.4632256236D+03  0.2433247765D-01
      0.1312001960D+03  0.9739996831D-01
      0.4285301589D+02  0.3019558425D+00
      0.1558418577D+02  0.6623360914D+00
 S   2 1.00       0.000000000000
      0.6206713851D+01  0.6559530854D+00
      0.2576489653D+01  0.3758563329D+00
 S   1 1.00       0.000000000000
      0.5769633942D+00  0.1000000000D+01
 S   1 1.00       0.000000000000
      0.2297283136D+00  0.1000000000D+01
 S   1 1.00       0.000000000000
      0.9516444003D-01  0.1000000000D+01
 P   4 1.00       0.000000000000
      0.3469723224D+02  0.1132722000D-01
      0.7958262283D+01  0.7616965920D-01
      0.2378082688D+01  0.3019225220D+00
      0.8143320818D+00  0.7278502735D+00
 P   1 1.00       0.000000000000
      0.2888754725D+00  0.1000000000D+01
 P   1 1.00       0.000000000000
      0.1005682367D+00  0.1000000000D+01
 D   1 1.00       0.000000000000
      0.1097000000D+01  0.1000000000D+01
 D   1 1.00       0.000000000000
      0.3180000000D+00  0.1000000000D+01
 F   1 1.00       0.000000000000
      0.7610000000D+00  0.1000000000D+01
 ****
     27 0
 S   6 1.00       0.000000000000
      0.1357534968D+05  0.6064550360D-03
      0.2035233368D+04  0.4697908888D-02
      0.4632256236D+03  0.2433247765D-01
      0.1312001960D+03  0.9739996831D-01
      0.4285301589D+02  0.3019558425D+00
      0.1558418577D+02  0.6623360914D+00
 S   2 1.00       0.000000000000
      0.6206713851D+01  0.6559530854D+00
      0.2576489653D+01  0.3758563329D+00
 S   1 1.00       0.000000000000
      0.5769633942D+00  0.1000000000D+01
 S   1 1.00       0.000000000000
      0.2297283136D+00  0.1000000000D+01
 S   1 1.00       0.000000000000
      0.9516444003D-01  0.1000000000D+01
 P   4 1.00       0.000000000000
      0.3469723224D+02  0.1132722000D-01
      0.7958262283D+01  0.7616965920D-01
      0.2378082688D+01  0.3019225220D+00
      0.8143320818D+00  0.7278502735D+00
 P   1 1.00       0.000000000000
      0.2888754725D+00  0.1000000000D+01
 P   1 1.00       0.000000000000
      0.1005682367D+00  0.1000000000D+01
 D   1 1.00       0.000000000000
      0.1097000000D+01  0.1000000000D+01
 D   1 1.00       0.000000000000
      0.3180000000D+00  0.1000000000D+01
 F   1 1.00       0.000000000000
      0.7610000000D+00  0.1000000000D+01
 ****
     28 0
 S   6 1.00       0.000000000000
      0.1357534968D+05  0.6064550360D-03
      0.2035233368D+04  0.4697908888D-02
      0.4632256236D+03  0.2433247765D-01
      0.1312001960D+03  0.9739996831D-01
      0.4285301589D+02  0.3019558425D+00
      0.1558418577D+02  0.6623360914D+00
 S   2 1.00       0.000000000000
      0.6206713851D+01  0.6559530854D+00
      0.2576489653D+01  0.3758563329D+00
 S   1 1.00       0.000000000000
      0.5769633942D+00  0.1000000000D+01
 S   1 1.00       0.000000000000
      0.2297283136D+00  0.1000000000D+01
 S   1 1.00       0.000000000000
      0.9516444003D-01  0.1000000000D+01
 P   4 1.00       0.000000000000
      0.3469723224D+02  0.1132722000D-01
      0.7958262283D+01  0.7616965920D-01
      0.2378082688D+01  0.3019225220D+00
      0.8143320818D+00  0.7278502735D+00
 P   1 1.00       0.000000000000
      0.2888754725D+00  0.1000000000D+01
 P   1 1.00       0.000000000000
      0.1005682367D+00  0.1000000000D+01
 D   1 1.00       0.000000000000
      0.1097000000D+01  0.1000000000D+01
 D   1 1.00       0.000000000000
      0.3180000000D+00  0.1000000000D+01
 F   1 1.00       0.000000000000
      0.7610000000D+00  0.1000000000D+01
 ****
     29 0
 S   6 1.00       0.000000000000
      0.1357534968D+05  0.6064550360D-03
      0.2035233368D+04  0.4697908888D-02
      0.4632256236D+03  0.2433247765D-01
      0.1312001960D+03  0.9739996831D-01
      0.4285301589D+02  0.3019558425D+00
      0.1558418577D+02  0.6623360914D+00
 S   2 1.00       0.000000000000
      0.6206713851D+01  0.6559530854D+00
      0.2576489653D+01  0.3758563329D+00
 S   1 1.00       0.000000000000
      0.5769633942D+00  0.1000000000D+01
 S   1 1.00       0.000000000000
      0.2297283136D+00  0.1000000000D+01
 S   1 1.00       0.000000000000
      0.9516444003D-01  0.1000000000D+01
 P   4 1.00       0.000000000000
      0.3469723224D+02  0.1132722000D-01
      0.7958262283D+01  0.7616965920D-01
      0.2378082688D+01  0.3019225220D+00
      0.8143320818D+00  0.7278502735D+00
 P   1 1.00       0.000000000000
      0.2888754725D+00  0.1000000000D+01
 P   1 1.00       0.000000000000
      0.1005682367D+00  0.1000000000D+01
 D   1 1.00       0.000000000000
      0.1097000000D+01  0.1000000000D+01
 D   1 1.00       0.000000000000
      0.3180000000D+00  0.1000000000D+01
 F   1 1.00       0.000000000000
      0.7610000000D+00  0.1000000000D+01
 ****
     30 0
 S   6 1.00       0.000000000000
      0.1357534968D+05  0.6064550360D-03
      0.2035233368D+04  0.4697908888D-02
      0.4632256236D+03  0.2433247765D-01
      0.1312001960D+03  0.9739996831D-01
      0.4285301589D+02  0.3019558425D+00
      0.1558418577D+02  0.6623360914D+00
 S   2 1.00       0.000000000000
      0.6206713851D+01  0.6559530854D+00
      0.2576489653D+01  0.3758563329D+00
 S   1 1.00       0.000000000000
      0.5769633942D+00  0.1000000000D+01
 S   1 1.00       0.000000000000
      0.2297283136D+00  0.1000000000D+01
 S   1 1.00       0.000000000000
      0.9516444003D-01  0.1000000000D+01
 P   4 1.00       0.000000000000
      0.3469723224D+02  0.1132722000D-01
      0.7958262283D+01  0.7616965920D-01
      0.2378082688D+01  0.3019225220D+00
      0.8143320818D+00  0.7278502735D+00
 P   1 1.00       0.000000000000
      0.2888754725D+00  0.1000000000D+01
 P   1 1.00       0.000000000000
      0.1005682367D+00  0.1000000000D+01
 D   1 1.00       0.000000000000
[...]
     8  H   -0.000002   0.000000   0.000000  -0.000001  -0.000001   0.000003
     9  H   -0.000005   0.000875  -0.000043  -0.000046  -0.000002  -0.000000
    10  H    0.000011   0.000002  -0.000002  -0.000005  -0.000025   0.000019
    11  C   -0.014017  -0.032370  -0.042891  -0.043543   0.028043  -0.019178
    12  C   -0.012608   0.013106  -0.011072   0.253264  -0.018432   0.029084
    13  N    0.000024  -0.000152   0.000558  -0.073574  -0.000793  -0.025256
    14  C    0.010976  -0.007393  -0.008845  -0.001534  -0.010157   0.004420
    15  H   -0.000270   0.000077  -0.000104  -0.005997   0.004083  -0.003152
    16  H   -0.000142  -0.000040   0.002196   0.010164   0.000948  -0.000443
    17  H   -0.000044   0.002237   0.000117  -0.000446  -0.000119   0.000149
    18  C    0.404545   0.416671   0.415658  -0.005776  -0.001452   0.000458
    19  H    0.522610  -0.020206  -0.021220   0.003081   0.000136  -0.000022
    20  H   -0.020206   0.512707  -0.020841  -0.000734  -0.000016  -0.000005
    21  H   -0.021220  -0.020841   0.520643  -0.001797  -0.000068   0.000022
    22  C    0.003081  -0.000734  -0.001797   5.374243  -0.013249  -0.031667
    23  C    0.000136  -0.000016  -0.000068  -0.013249   6.816344  -0.647700
    24  C   -0.000022  -0.000005   0.000022  -0.031667  -0.647700   5.404976
    25  O   -0.000002   0.000016  -0.000023  -0.028131  -0.256538   0.703478
    26  C   -0.000001  -0.000001   0.000000   0.001604   0.113455   0.210178
    27  C    0.000000   0.000000   0.000000   0.000477  -0.197125   0.169637
    28  C   -0.000001   0.000000   0.000000  -0.001911   0.107336  -0.203118
    29  C    0.000005  -0.000000  -0.000002   0.007129  -0.007817   0.297247
    30  C   -0.000362   0.000042  -0.000002  -0.002967  -0.036713   0.009310
    31  H    0.000009   0.000001  -0.000011  -0.014207  -0.009623  -0.002363
    32  H    0.000028  -0.000000   0.000001   0.008509  -0.004676   0.003480
    33  H   -0.000040  -0.000008  -0.000004  -0.002212   0.001324   0.000263
    34  C   -0.000522   0.000071   0.000259   0.398938   0.189314  -0.052267
    35  H    0.000118  -0.000088   0.002554   0.430373   0.007731   0.000618
    36  H   -0.000002  -0.000001   0.000008  -0.052448  -0.047286   0.002789
    37  H    0.000000  -0.000000  -0.000000  -0.000194  -0.046013   0.006836
    38  H    0.000000  -0.000000  -0.000000  -0.000005  -0.007298   0.012208
    39  H    0.000000   0.000000   0.000000  -0.000044   0.044422  -0.087313
    40  N    0.000000  -0.000000  -0.000000   0.000020   0.010115  -0.002773
    41  O   -0.000000  -0.000000  -0.000000   0.000023  -0.003087   0.001664
    42  O    0.000000  -0.000000  -0.000000   0.000000  -0.002662   0.001269
              25         26         27         28         29         30
     1  C    0.000024  -0.000034   0.000013   0.000000  -0.000002  -0.000232
     2  C    0.000007   0.000051  -0.000072   0.000006   0.000000  -0.001001
     3  C   -0.002103   0.005618  -0.000764   0.000004  -0.000597  -0.009885
     4  C    0.005013  -0.012517   0.000860   0.000139   0.000985  -0.051691
     5  C    0.010892  -0.002173   0.000458  -0.000057   0.000296   0.006951
     6  C   -0.000167   0.000061  -0.000004  -0.000001  -0.000002   0.001002
     7  H    0.000001  -0.000000   0.000000   0.000000   0.000000  -0.000001
     8  H    0.000000  -0.000015  -0.000000  -0.000000   0.000000   0.000002
     9  H    0.000001   0.000000   0.000000   0.000000  -0.000000   0.000029
    10  H   -0.000009   0.000131   0.000237   0.000021  -0.000070   0.002246
    11  C   -0.036132  -0.000012  -0.000492   0.000243  -0.001038   0.001544
    12  C    0.023733  -0.006702   0.002681  -0.001937   0.007699  -0.046501
    13  N   -0.016604   0.010516  -0.001976   0.003638  -0.011074   0.239875
    14  C   -0.001155   0.000649  -0.000023  -0.000022   0.000203   0.000038
    15  H    0.008707  -0.000232  -0.000013   0.000027  -0.000157  -0.000146
    16  H   -0.001038  -0.000007   0.000000  -0.000000   0.000008  -0.000023
    17  H    0.000637   0.000016  -0.000001   0.000000  -0.000003   0.000031
    18  C    0.000758  -0.000025   0.000004  -0.000002   0.000030   0.000591
    19  H   -0.000002  -0.000001   0.000000  -0.000001   0.000005  -0.000362
    20  H    0.000016  -0.000001   0.000000   0.000000  -0.000000   0.000042
    21  H   -0.000023   0.000000   0.000000   0.000000  -0.000002  -0.000002
    22  C   -0.028131   0.001604   0.000477  -0.001911   0.007129  -0.002967
    23  C   -0.256538   0.113455  -0.197125   0.107336  -0.007817  -0.036713
    24  C    0.703478   0.210178   0.169637  -0.203118   0.297247   0.009310
    25  O    8.068534  -0.120152   0.016196  -0.005173   0.017873   0.002210
    26  C   -0.120152   5.691588   0.074277   0.130326  -0.272628  -0.004692
    27  C    0.016196   0.074277   5.535402   0.115722   0.090921   0.003423
    28  C   -0.005173   0.130326   0.115722   5.682768   0.084053  -0.004001
    29  C    0.017873  -0.272628   0.090921   0.084053   5.727707   0.004231
    30  C    0.002210  -0.004692   0.003423  -0.004001   0.004231   5.010528
    31  H    0.000028   0.000287  -0.000342   0.000457  -0.006413   0.414476
    32  H    0.000306  -0.005435   0.003651  -0.008025   0.010291   0.418637
    33  H   -0.000128   0.000452  -0.000076   0.000123  -0.000552   0.402589
    34  C    0.050915   0.038723  -0.016555   0.041099  -0.187253   0.001241
    35  H   -0.000142   0.000090  -0.000018   0.000011  -0.000610  -0.000089
    36  H    0.000036  -0.000057  -0.000069   0.001045   0.002188   0.000084
    37  H    0.000023  -0.003709   0.006359  -0.046328   0.439899  -0.000418
    38  H   -0.000153  -0.042528   0.431038  -0.047248   0.009464   0.000119
    39  H    0.014852   0.439958  -0.067298   0.017773  -0.009604  -0.000639
    40  N    0.000002   0.009876  -0.070570   0.459830  -0.070549  -0.000063
    41  O   -0.000000  -0.002254   0.024469  -0.187633   0.042951  -0.000129
    42  O   -0.000000  -0.003373   0.043591  -0.181818   0.024427   0.000020
              31         32         33         34         35         36
     1  C    0.000005   0.000045  -0.000199  -0.000054   0.000001  -0.000000
     2  C    0.000014  -0.000041   0.000258   0.000103   0.000000   0.000000
     3  C    0.001193  -0.000829  -0.003135  -0.000704   0.000029  -0.000003
     4  C    0.011636  -0.007492  -0.005982  -0.000789  -0.000464   0.000016
     5  C   -0.001535  -0.000049   0.001493  -0.002624   0.000756   0.000001
     6  C   -0.000007  -0.000119   0.000240   0.000346  -0.000006   0.000001
     7  H   -0.000000   0.000000   0.000000  -0.000000  -0.000000  -0.000000
     8  H   -0.000001  -0.000004  -0.000000   0.000000   0.000000   0.000000
     9  H   -0.000001  -0.000001   0.000003   0.000004  -0.000002   0.000000
    10  H    0.000241  -0.000888  -0.002158   0.000006  -0.000000  -0.000000
    11  C    0.006326  -0.003200   0.001082  -0.002362   0.002817   0.000034
    12  C   -0.012015   0.003610  -0.002273  -0.028009  -0.056464   0.011110
    13  N   -0.024559  -0.038599  -0.022776   0.018833   0.004738  -0.000078
    14  C   -0.000058   0.000051   0.000003   0.006089  -0.003784  -0.000034
    15  H    0.000008  -0.000004  -0.000001  -0.000389  -0.000130   0.000005
    16  H    0.000002   0.000000  -0.000001  -0.001204  -0.000158  -0.000005
    17  H    0.000001  -0.000001   0.000000   0.000175   0.000065   0.000000
    18  C    0.000088  -0.000052   0.000229   0.001764  -0.000614   0.000008
    19  H    0.000009   0.000028  -0.000040  -0.000522   0.000118  -0.000002
    20  H    0.000001  -0.000000  -0.000008   0.000071  -0.000088  -0.000001
    21  H   -0.000011   0.000001  -0.000004   0.000259   0.002554   0.000008
    22  C   -0.014207   0.008509  -0.002212   0.398938   0.430373  -0.052448
    23  C   -0.009623  -0.004676   0.001324   0.189314   0.007731  -0.047286
    24  C   -0.002363   0.003480   0.000263  -0.052267   0.000618   0.002789
    25  O    0.000028   0.000306  -0.000128   0.050915  -0.000142   0.000036
    26  C    0.000287  -0.005435   0.000452   0.038723   0.000090  -0.000057
    27  C   -0.000342   0.003651  -0.000076  -0.016555  -0.000018  -0.000069
    28  C    0.000457  -0.008025   0.000123   0.041099   0.000011   0.001045
    29  C   -0.006413   0.010291  -0.000552  -0.187253  -0.000610   0.002188
    30  C    0.414476   0.418637   0.402589   0.001241  -0.000089   0.000084
    31  H    0.474456  -0.019789  -0.012391   0.006711   0.000058   0.000122
    32  H   -0.019789   0.488879  -0.030050  -0.009187   0.000010  -0.000081
    33  H   -0.012391  -0.030050   0.489195   0.002287   0.000013   0.000015
    34  C    0.006711  -0.009187   0.002287   5.291424  -0.030776   0.438643
    35  H    0.000058   0.000010   0.000013  -0.030776   0.489494  -0.005054
    36  H    0.000122  -0.000081   0.000015   0.438643  -0.005054   0.482326
    37  H    0.000206   0.000257  -0.000012  -0.008965  -0.000010   0.001636
    38  H   -0.000007   0.000068  -0.000001   0.000112   0.000000  -0.000001
    39  H    0.000028  -0.000062  -0.000000  -0.000957  -0.000002   0.000011
    40  N    0.000015   0.000051  -0.000004  -0.000292   0.000000  -0.000009
    41  O    0.000014   0.000112   0.000000  -0.001101   0.000000  -0.000033
    42  O    0.000001  -0.000007   0.000001  -0.000049   0.000000  -0.000001
              37         38         39         40         41         42
     1  C   -0.000000  -0.000000   0.000036  -0.000000  -0.000000   0.000000
     2  C    0.000000   0.000000  -0.000046   0.000000   0.000000  -0.000000
     3  C   -0.000001  -0.000015   0.000529   0.000001   0.000000   0.000000
     4  C    0.000003  -0.000005   0.000309   0.000001  -0.000001   0.000000
     5  C    0.000003   0.000001  -0.000006  -0.000000  -0.000000  -0.000000
     6  C    0.000000   0.000000  -0.000057  -0.000000   0.000000  -0.000000
     7  H    0.000000  -0.000000   0.000000  -0.000000  -0.000000   0.000000
     8  H    0.000000   0.000000  -0.000001   0.000000   0.000000  -0.000000
     9  H   -0.000000  -0.000000  -0.000000   0.000000   0.000000  -0.000000
    10  H   -0.000001   0.000001   0.000005  -0.000000  -0.000000   0.000000
    11  C   -0.000008  -0.000004   0.000543   0.000000  -0.000000   0.000000
    12  C    0.000223   0.000017  -0.000824  -0.000003  -0.000009  -0.000001
    13  N   -0.000082  -0.000027   0.000525   0.000009   0.000002  -0.000001
    14  C   -0.000000   0.000001  -0.000357   0.000000  -0.000000  -0.000000
    15  H   -0.000000  -0.000001   0.000413  -0.000000  -0.000000   0.000000
    16  H    0.000000  -0.000000   0.000006   0.000000   0.000000   0.000000
    17  H   -0.000000   0.000000  -0.000002   0.000000   0.000000   0.000000
    18  C   -0.000000   0.000000  -0.000006   0.000000   0.000000  -0.000000
    19  H    0.000000   0.000000   0.000000   0.000000  -0.000000   0.000000
    20  H   -0.000000  -0.000000   0.000000  -0.000000  -0.000000  -0.000000
    21  H   -0.000000  -0.000000   0.000000  -0.000000  -0.000000  -0.000000
    22  C   -0.000194  -0.000005  -0.000044   0.000020   0.000023   0.000000
    23  C   -0.046013  -0.007298   0.044422   0.010115  -0.003087  -0.002662
    24  C    0.006836   0.012208  -0.087313  -0.002773   0.001664   0.001269
    25  O    0.000023  -0.000153   0.014852   0.000002  -0.000000  -0.000000
    26  C   -0.003709  -0.042528   0.439958   0.009876  -0.002254  -0.003373
    27  C    0.006359   0.431038  -0.067298  -0.070570   0.024469   0.043591
    28  C   -0.046328  -0.047248   0.017773   0.459830  -0.187633  -0.181818
    29  C    0.439899   0.009464  -0.009604  -0.070549   0.042951   0.024427
    30  C   -0.000418   0.000119  -0.000639  -0.000063  -0.000129   0.000020
    31  H    0.000206  -0.000007   0.000028   0.000015   0.000014   0.000001
    32  H    0.000257   0.000068  -0.000062   0.000051   0.000112  -0.000007
    33  H   -0.000012  -0.000001  -0.000000  -0.000004   0.000000   0.000001
    34  C   -0.008965   0.000112  -0.000957  -0.000292  -0.001101  -0.000049
    35  H   -0.000010   0.000000  -0.000002   0.000000   0.000000   0.000000
    36  H    0.001636  -0.000001   0.000011  -0.000009  -0.000033  -0.000001
    37  H    0.464060  -0.000199   0.000035  -0.007443   0.030447   0.001737
    38  H   -0.000199   0.466987  -0.008855  -0.006622   0.001409   0.026487
    39  H    0.000035  -0.008855   0.533405  -0.000082   0.000002  -0.000126
    40  N   -0.007443  -0.006622  -0.000082   5.447428   0.410346   0.409071
    41  O    0.030447   0.001409   0.000002   0.410346   8.180054  -0.130784
    42  O    0.001737   0.026487  -0.000126   0.409071  -0.130784   8.178480
 Mulliken charges:
               1
     1  C   -0.138828
     2  C   -0.126781
     3  C   -0.212090
     4  C    0.164352
     5  C   -0.058248
     6  C   -0.194625
     7  H    0.148241
     8  H    0.150245
     9  H    0.149342
    10  H    0.162309
    11  C    0.189474
    12  C    0.137106
    13  N    0.037703
    14  C   -0.384086
    15  H    0.164584
    16  H    0.133972
    17  H    0.135816
    18  C   -0.380157
    19  H    0.144832
    20  H    0.150744
    21  H    0.146221
    22  C   -0.214079
    23  C   -0.015293
    24  C    0.227366
    25  O   -0.456594
    26  C   -0.251310
    27  C   -0.164018
    28  C    0.042653
    29  C   -0.199238
    30  C   -0.359662
    31  H    0.186940
    32  H    0.190604
    33  H    0.182428
    34  C   -0.142995
    35  H    0.158931
    36  H    0.165080
    37  H    0.161661
    38  H    0.165055
    39  H    0.123429
    40  N    0.411644
    41  O   -0.366464
    42  O   -0.366264
 Sum of Mulliken charges =  -0.00000
 Mulliken charges with hydrogens summed into heavy atoms:
               1
     1  C    0.009413
     2  C    0.023464
     3  C   -0.049781
     4  C    0.164352
     5  C   -0.058248
     6  C   -0.045283
    11  C    0.189474
    12  C    0.137106
    13  N    0.037703
    14  C    0.050287
    18  C    0.061641
    22  C   -0.055148
    23  C   -0.015293
    24  C    0.227366
    25  O   -0.456594
    26  C   -0.127880
    27  C    0.001037
    28  C    0.042653
    29  C   -0.037578
    30  C    0.200310
    34  C    0.022085
    40  N    0.411644
    41  O   -0.366464
    42  O   -0.366264
 Electronic spatial extent (au):  <R**2>=           7898.0584
 Charge=             -0.0000 electrons
 Dipole moment (field-independent basis, Debye):
    X=             12.7661    Y=              1.5595    Z=             -4.7946  Tot=             13.7256
 Quadrupole moment (field-independent basis, Debye-Ang):
   XX=           -174.1223   YY=           -125.1534   ZZ=           -145.4795
   XY=             -7.3750   XZ=             -5.3302   YZ=             -5.0029
 Traceless Quadrupole moment (field-independent basis, Debye-Ang):
   XX=            -25.8706   YY=             23.0984   ZZ=              2.7722
   XY=             -7.3750   XZ=             -5.3302   YZ=             -5.0029
 Octapole moment (field-independent basis, Debye-Ang**2):
  XXX=            378.7128  YYY=              5.1178  ZZZ=            -28.8965  XYY=             29.5932
  XXY=             51.2100  XXZ=             56.7628  XZZ=             -8.3405  YZZ=            -11.9047
  YYZ=            -13.5893  XYZ=             -1.1549
 Hexadecapole moment (field-independent basis, Debye-Ang**3):
 XXXX=          -8953.7886 YYYY=          -1942.3773 ZZZZ=           -970.9470 XXXY=           -269.3799
 XXXZ=           -134.2157 YYYX=            -78.0656 YYYZ=            -14.8197 ZZZX=             14.6762
 ZZZY=            -12.8295 XXYY=          -1584.3863 XXZZ=          -1459.2703 YYZZ=           -530.7155
 XXYZ=            -32.6694 YYXZ=             13.2089 ZZXY=             40.4110
 N-N= 2.067687357629D+03 E-N=-6.627576259213D+03  KE= 1.065333898421D+03
 No NMR shielding tensors so no spin-rotation constants.
 Leave Link  601 at Tue Mar 12 02:24:54 2024, MaxMem=  2684354560 cpu:              25.0 elap:               1.3
 (Enter /s/ls4/groups/g0130/bin/g16/l9999.exe)
 Electronic transition elements 
                 1             2             3             4             5 
      1  -0.106976D+04 -0.106972D+04 -0.106970D+04 -0.106969D+04 -0.106966D+04
      2  -0.735487D+00 -0.372752D+00  0.162274D+01 -0.184537D+01  0.199623D+00
      3   0.876093D-01  0.164732D+00  0.728803D+00  0.115199D+01 -0.370714D+00
      4   0.127480D+01  0.739295D+00 -0.108227D+01  0.102043D+01 -0.241490D+00
      5   0.466570D-01  0.389981D-01 -0.202370D+00  0.245198D+00 -0.314437D-01
      6  -0.578018D-02 -0.176162D-01 -0.902891D-01 -0.153004D+00  0.576320D-01
      7  -0.807788D-01 -0.793249D-01  0.134137D+00 -0.135078D+00  0.375511D-01
      8  -0.497904D+00 -0.554914D+00  0.904689D+00 -0.626220D+00  0.638236D+00
      9   0.959649D+00  0.299394D+00  0.683688D-02 -0.612288D+00  0.163863D-01
     10  -0.665684D+00 -0.214367D+00 -0.365009D-01 -0.480699D+00 -0.124028D+00
     11   0.108564D-02  0.747406D-01  0.241354D+00  0.162043D+01 -0.583970D+00
     12  -0.746332D-01 -0.960796D-01 -0.588879D-01 -0.447590D-02  0.459334D-01
     13   0.696060D-01  0.169372D+00  0.520789D-01  0.816862D+00 -0.903841D-01
     14  -0.965851D-01 -0.225818D+00  0.513517D-01 -0.716538D+00 -0.413423D-01
     15  -0.266997D-01 -0.105348D+00 -0.111459D+00 -0.139849D+01  0.462752D+00
     16   0.177459D-01  0.825973D-01 -0.280790D+00  0.707125D+00  0.914131D-01
 1\1\GINC-N258\FOpt\RCAM-B3LYP TD-FC\def2TZVP\C19H18N2O3\ARTD\12-Mar-20
 24\0\\#p CAM-B3LYP/def2TZVP EmpiricalDispersion=GD3BJ SCRF(PCM,Solvent
 =chloroform) TD(Singlets,NStates=5, root=1) opt guess=(read) geom=(all
 check) gfinput\\TITLE\\0,1\C,-2.040666162,2.0065178869,0.0111754913\C,
 -1.0870901873,1.0837860425,-0.3926970964\C,0.203422703,1.4810579172,-0
 .7175369079\C,0.4944634175,2.8292999172,-0.6309793417\C,-0.4457454422,
 3.7642101347,-0.2144590462\C,-1.7193747093,3.3574675869,0.1095641262\H
 ,-3.0399696416,1.6728378386,0.2549487114\H,-1.3510920319,0.0370277834,
 -0.4610633148\H,-2.4626117757,4.0715227377,0.4406823061\H,0.9420884131
 ,0.7604483982,-1.0389617094\C,0.2065256626,5.1249063689,-0.1445412753\
 C,1.558434243,4.82174645,-0.7674063777\N,1.7065718151,3.4684085316,-0.
 9076109385\C,-0.5728617314,6.2006717712,-0.8963934609\H,-0.7053507135,
 5.9223910069,-1.9382269631\H,-0.0424432416,7.1524786378,-0.8609666867\
 H,-1.5504960097,6.3426650548,-0.4347165227\C,0.3957202614,5.5443701278
 ,1.3250691231\H,0.9471180209,4.7874292086,1.8820604119\H,-0.5766839336
 ,5.6794870219,1.7994422018\H,0.9388640396,6.4875925981,1.3871843556\C,
 2.5113030655,5.7896606077,-1.1141274664\C,3.3585590658,4.7000270488,-3
 .1597798639\C,2.0306864572,4.345067152,-3.6778657358\O,1.0324649791,5.
 0376227292,-3.4079343618\C,1.9336706756,3.1960033486,-4.5305540935\C,3
 .0460399047,2.560508009,-4.9920023142\C,4.3047396391,3.0171895628,-4.5
 764053965\C,4.468124937,4.0547646739,-3.6808551503\C,2.9516460597,2.72
 3701865,-0.8763822285\H,3.7825822955,3.4141582101,-0.7938773055\H,3.07
 94736647,2.1205043543,-1.7739884257\H,2.9500649706,2.0628734521,-0.007
 9570235\C,3.4422931664,5.6868012026,-2.1210159796\H,2.4812246229,6.712
 68975,-0.5447039415\H,4.2677605118,6.3872777276,-2.1487303061\H,5.4619
 553317,4.3249265518,-3.3572756188\H,2.9828698544,1.7285224871,-5.67540
 99549\H,0.944858457,2.9101982343,-4.8600207113\N,5.4910079154,2.344415
 6248,-5.085960859\O,6.5810313739,2.7729088756,-4.7559567854\O,5.335250
 0557,1.3836655121,-5.8165335636\\Version=ES64L-G16RevA.03\State=1-A\HF
 =-1069.8215242\RMSD=3.130e-09\RMSF=6.928e-06\Dipole=-1.2142691,0.22685
 36,2.2887706\PG=C01 [X(C19H18N2O3)]\\@


 We're simply so accustomed to the marvels of everyday thought
 that we never wonder about it.
 -- Marvin Minsky in "Why people think computers are smart"
 Job cpu time:      37 days  1 hours 31 minutes 57.5 seconds.
 Elapsed time:       1 days 13 hours  4 minutes 55.4 seconds.
 File lengths (MBytes):  RWF=   2607 Int=      0 D2E=      0 Chk=    181 Scr=      1
 Normal termination of Gaussian 16 at Tue Mar 12 02:24:56 2024.
