 Entering Gaussian System, Link 0=/s/ls4/groups/g0130/bin/g16/g16
 Input=mc1_s1_m062x.gjf
 Output=mc1_s1_m062x.log
 Initial command:
 /s/ls4/groups/g0130/bin/g16/l1.exe "/dev/shm/scratch_artd/Gau-30937.inp" -scrdir="/dev/shm/scratch_artd/"
 Entering Link 1 = /s/ls4/groups/g0130/bin/g16/l1.exe PID=     30938.
  
 Copyright (c) 1988,1990,1992,1993,1995,1998,2003,2009,2016,
            Gaussian, Inc.  All Rights Reserved.
  
 This is part of the Gaussian(R) 16 program.  It is based on
 the Gaussian(R) 09 system (copyright 2009, Gaussian, Inc.),
 the Gaussian(R) 03 system (copyright 2003, Gaussian, Inc.),
 the Gaussian(R) 98 system (copyright 1998, Gaussian, Inc.),
 the Gaussian(R) 94 system (copyright 1995, Gaussian, Inc.),
 the Gaussian 92(TM) system (copyright 1992, Gaussian, Inc.),
 the Gaussian 90(TM) system (copyright 1990, Gaussian, Inc.),
 the Gaussian 88(TM) system (copyright 1988, Gaussian, Inc.),
 the Gaussian 86(TM) system (copyright 1986, Carnegie Mellon
 University), and the Gaussian 82(TM) system (copyright 1983,
 Carnegie Mellon University). Gaussian is a federally registered
 trademark of Gaussian, Inc.
  
 This software contains proprietary and confidential information,
 including trade secrets, belonging to Gaussian, Inc.
  
 This software is provided under written license and may be
 used, copied, transmitted, or stored only in accord with that
 written license.
  
 The following legend is applicable only to US Government
 contracts under FAR:
  
                    RESTRICTED RIGHTS LEGEND
  
 Use, reproduction and disclosure by the US Government is
 subject to restrictions as set forth in subparagraphs (a)
 and (c) of the Commercial Computer Software - Restricted
 Rights clause in FAR 52.227-19.
  
 Gaussian, Inc.
 340 Quinnipiac St., Bldg. 40, Wallingford CT 06492
  
  
 ---------------------------------------------------------------
 Warning -- This program may not be used in any manner that
 competes with the business of Gaussian, Inc. or will provide
 assistance to any competitor of Gaussian, Inc.  The licensee
 of this program is prohibited from giving any competitor of
 Gaussian, Inc. access to this program.  By using this program,
 the user acknowledges that Gaussian, Inc. is engaged in the
 business of creating and licensing software in the field of
 computational chemistry and represents and warrants to the
 licensee that it is not a competitor of Gaussian, Inc. and that
 it will not use this program in any manner prohibited above.
 ---------------------------------------------------------------
  

 Cite this work as:
 Gaussian 16, Revision A.03,
 M. J. Frisch, G. W. Trucks, H. B. Schlegel, G. E. Scuseria, 
 M. A. Robb, J. R. Cheeseman, G. Scalmani, V. Barone, 
 G. A. Petersson, H. Nakatsuji, X. Li, M. Caricato, A. V. Marenich, 
 J. Bloino, B. G. Janesko, R. Gomperts, B. Mennucci, H. P. Hratchian, 
 J. V. Ortiz, A. F. Izmaylov, J. L. Sonnenberg, D. Williams-Young, 
 F. Ding, F. Lipparini, F. Egidi, J. Goings, B. Peng, A. Petrone, 
 T. Henderson, D. Ranasinghe, V. G. Zakrzewski, J. Gao, N. Rega, 
 G. Zheng, W. Liang, M. Hada, M. Ehara, K. Toyota, R. Fukuda, 
 J. Hasegawa, M. Ishida, T. Nakajima, Y. Honda, O. Kitao, H. Nakai, 
 T. Vreven, K. Throssell, J. A. Montgomery, Jr., J. E. Peralta, 
 F. Ogliaro, M. J. Bearpark, J. J. Heyd, E. N. Brothers, K. N. Kudin, 
 V. N. Staroverov, T. A. Keith, R. Kobayashi, J. Normand, 
 K. Raghavachari, A. P. Rendell, J. C. Burant, S. S. Iyengar, 
 J. Tomasi, M. Cossi, J. M. Millam, M. Klene, C. Adamo, R. Cammi, 
 J. W. Ochterski, R. L. Martin, K. Morokuma, O. Farkas, 
 J. B. Foresman, and D. J. Fox, Gaussian, Inc., Wallingford CT, 2016.
 
 ******************************************
 Gaussian 16:  ES64L-G16RevA.03 25-Dec-2016
                10-Mar-2024 
 ******************************************
 %nprocshared=24
 Will use up to   24 processors via shared memory.
 %mem=20GB
 %oldchk=mc1_gs_m062x.chk
 %chk=mc1_s1_m062x.chk
 Copying data from "mc1_gs_m062x.chk" to current chk file "mc1_s1_m062x.chk"
 IOpt=  2 FromEx=T IUOpen= 4 IOptOp= 5 NList=   0 IFRang= 0 IUIn= 4 IUOut= 2.
 ----------------------------------------------------------------------
 #p M062X/def2TZVP SCRF(PCM,Solvent=acetonitrile) TD(Singlets,NStates=5
 , root=1) integral=ultrafine opt guess=(read) geom=(allcheck) gfinput
 ----------------------------------------------------------------------
 1/18=20,19=15,26=6,29=7,38=1/1,3;
 2/9=110,12=2,40=1/2;
 3/5=44,7=101,11=9,14=-4,24=10,25=1,30=1,70=2201,71=1,72=2,74=-55,75=-5,116=-2/1,2,3,8;
 4/5=1/1;
 5/5=2,38=6,53=2/2;
 8/6=1,10=1,107=1,108=5/1;
 9/8=1,15=2,41=5,42=1,48=1,70=2/14;
 10/5=4,28=1/2;
 6/7=2,8=2,9=2,10=2/1;
 7/12=6,13=5,14=1/1,2,3,16;
 1/18=20,19=15,26=6/3(2);
 2/9=110/2;
 99//99;
 2/9=110/2;
 3/5=44,7=101,11=9,14=-2,25=1,30=1,70=2205,71=1,72=2,74=-55,75=-5/1,2,3,8;
 4/5=5,16=3,69=1/1;
 5/5=2,38=5,53=2/2;
 8/6=1,10=1,107=1,108=5/1;
 9/8=1,15=2,41=5,42=1,48=1,49=4,70=2/14;
 10/5=4,28=1/2;
 7/12=6,13=5,14=1/1,2,3,16;
 1/18=20,19=15,26=6/3(-8);
 2/9=110/2;
 6/7=2,8=2,9=2,10=2/1;
 99//99;
 Leave Link    1 at Sun Mar 10 13:14:56 2024, MaxMem=  2684354560 cpu:              18.6 elap:               0.8
 (Enter /s/ls4/groups/g0130/bin/g16/l101.exe)
 Structure from the checkpoint file:  "mc1_s1_m062x.chk"
 -----
 TITLE
 -----
 Charge =  0 Multiplicity = 1
 Redundant internal coordinates found in file.  (old form).
 C,0,-2.3995651448,2.2956713534,0.596941607
 C,0,-1.5796251088,1.2188072716,0.2754056572
 C,0,-0.2651586536,1.4135337305,-0.1400645125
 C,0,0.1691291169,2.7215449042,-0.215844218
 C,0,-0.631520859,3.8102769624,0.0926834285
 C,0,-1.9312617689,3.6058226434,0.509987524
 H,0,-3.4167479336,2.1125361445,0.9162943537
 H,0,-1.9673527618,0.2115716795,0.3461997054
 H,0,-2.5756119561,4.4393445174,0.7606656317
 H,0,0.3705618096,0.5776849885,-0.397174466
 C,0,0.1693658169,5.0695778265,-0.1016341134
 C,0,1.4799955238,4.5060451016,-0.6118411397
 N,0,1.4507714889,3.1993127394,-0.5973017305
 C,0,-0.4518067465,6.0140358351,-1.1375281377
 H,0,-0.584490422,5.504095217,-2.0896081383
 H,0,0.1944200372,6.8795435942,-1.2879459603
 H,0,-1.417830275,6.3599248291,-0.7690594779
 C,0,0.3912639803,5.8010730647,1.2338029923
 H,0,0.8815031954,5.1554989621,1.9625249235
 H,0,-0.5780560574,6.1017777485,1.6311236949
 H,0,0.9926836877,6.697849008,1.0866761765
 C,0,2.603880733,5.3259295174,-0.9513902071
 C,0,3.4547062397,4.3724135963,-3.1588574004
 C,0,2.2328235503,3.7891719543,-3.7028671712
 O,0,1.1112793129,3.9483670813,-3.1786764077
 C,0,2.3860428385,3.0162667722,-4.9176458971
 C,0,3.583075051,2.8533987911,-5.5382699744
 C,0,4.7324268308,3.4736639407,-5.0037161081
 C,0,4.6543877058,4.2300483427,-3.851450408
 C,0,2.535453704,2.2929210929,-0.9197880963
 H,0,3.4769057234,2.8292193792,-0.8621780972
 H,0,2.3955132622,1.8980292986,-1.9263928309
 H,0,2.5272465451,1.4782832176,-0.1992438811
 C,0,3.4743830881,5.2034433262,-1.9809174658
 H,0,2.7379923113,6.1750785866,-0.2902402528
 H,0,4.3123688135,5.8940314891,-1.9447466437
 H,0,5.5502317939,4.7063820339,-3.474885266
 H,0,3.6705899977,2.2658389985,-6.441246839
 H,0,1.4886438471,2.5630636865,-5.3188923381
 N,0,5.991139729,3.3274509737,-5.6682678429
 O,0,6.9774900899,3.8794338247,-5.2006912786
 O,0,6.0391818633,2.651845975,-6.6867093941
 Recover connectivity data from disk.
 ITRead=  0  0  0  0  0  0  0  0  0  0  0  0  0  0  0  0  0  0  0  0
 ITRead=  0  0  0  0  0  0  0  0  0  0  0  0  0  0  0  0  0  0  0  0
 ITRead=  0  0
 MicOpt= -1 -1 -1 -1 -1 -1 -1 -1 -1 -1 -1 -1 -1 -1 -1 -1 -1 -1 -1 -1
 MicOpt= -1 -1 -1 -1 -1 -1 -1 -1 -1 -1 -1 -1 -1 -1 -1 -1 -1 -1 -1 -1
 MicOpt= -1 -1
 NAtoms=     42 NQM=       42 NQMF=       0 NMMI=      0 NMMIF=      0
                NMic=       0 NMicF=      0.
                    Isotopes and Nuclear Properties:
 (Nuclear quadrupole moments (NQMom) in fm**2, nuclear magnetic moments (NMagM)
  in nuclear magnetons)

  Atom         1           2           3           4           5           6           7           8           9          10
 IAtWgt=          12          12          12          12          12          12           1           1           1           1
 AtmWgt=  12.0000000  12.0000000  12.0000000  12.0000000  12.0000000  12.0000000   1.0078250   1.0078250   1.0078250   1.0078250
 NucSpn=           0           0           0           0           0           0           1           1           1           1
 AtZEff=   3.6000000   3.6000000   3.6000000   3.6000000   3.6000000   3.6000000   1.0000000   1.0000000   1.0000000   1.0000000
 NQMom=    0.0000000   0.0000000   0.0000000   0.0000000   0.0000000   0.0000000   0.0000000   0.0000000   0.0000000   0.0000000
 NMagM=    0.0000000   0.0000000   0.0000000   0.0000000   0.0000000   0.0000000   2.7928460   2.7928460   2.7928460   2.7928460
 AtZNuc=   6.0000000   6.0000000   6.0000000   6.0000000   6.0000000   6.0000000   1.0000000   1.0000000   1.0000000   1.0000000

  Atom        11          12          13          14          15          16          17          18          19          20
 IAtWgt=          12          12          14          12           1           1           1          12           1           1
 AtmWgt=  12.0000000  12.0000000  14.0030740  12.0000000   1.0078250   1.0078250   1.0078250  12.0000000   1.0078250   1.0078250
 NucSpn=           0           0           2           0           1           1           1           0           1           1
 AtZEff=   3.6000000   3.6000000   4.5500000   3.6000000   1.0000000   1.0000000   1.0000000   3.6000000   1.0000000   1.0000000
 NQMom=    0.0000000   0.0000000   2.0440000   0.0000000   0.0000000   0.0000000   0.0000000   0.0000000   0.0000000   0.0000000
 NMagM=    0.0000000   0.0000000   0.4037610   0.0000000   2.7928460   2.7928460   2.7928460   0.0000000   2.7928460   2.7928460
 AtZNuc=   6.0000000   6.0000000   7.0000000   6.0000000   1.0000000   1.0000000   1.0000000   6.0000000   1.0000000   1.0000000

  Atom        21          22          23          24          25          26          27          28          29          30
 IAtWgt=           1          12          12          12          16          12          12          12          12          12
 AtmWgt=   1.0078250  12.0000000  12.0000000  12.0000000  15.9949146  12.0000000  12.0000000  12.0000000  12.0000000  12.0000000
 NucSpn=           1           0           0           0           0           0           0           0           0           0
 AtZEff=   1.0000000   3.6000000   3.6000000   3.6000000   5.6000000   3.6000000   3.6000000   3.6000000   3.6000000   3.6000000
 NQMom=    0.0000000   0.0000000   0.0000000   0.0000000   0.0000000   0.0000000   0.0000000   0.0000000   0.0000000   0.0000000
 NMagM=    2.7928460   0.0000000   0.0000000   0.0000000   0.0000000   0.0000000   0.0000000   0.0000000   0.0000000   0.0000000
 AtZNuc=   1.0000000   6.0000000   6.0000000   6.0000000   8.0000000   6.0000000   6.0000000   6.0000000   6.0000000   6.0000000

  Atom        31          32          33          34          35          36          37          38          39          40
 IAtWgt=           1           1           1          12           1           1           1           1           1          14
 AtmWgt=   1.0078250   1.0078250   1.0078250  12.0000000   1.0078250   1.0078250   1.0078250   1.0078250   1.0078250  14.0030740
 NucSpn=           1           1           1           0           1           1           1           1           1           2
 AtZEff=   1.0000000   1.0000000   1.0000000   3.6000000   1.0000000   1.0000000   1.0000000   1.0000000   1.0000000   4.5500000
 NQMom=    0.0000000   0.0000000   0.0000000   0.0000000   0.0000000   0.0000000   0.0000000   0.0000000   0.0000000   2.0440000
 NMagM=    2.7928460   2.7928460   2.7928460   0.0000000   2.7928460   2.7928460   2.7928460   2.7928460   2.7928460   0.4037610
 AtZNuc=   1.0000000   1.0000000   1.0000000   6.0000000   1.0000000   1.0000000   1.0000000   1.0000000   1.0000000   7.0000000

  Atom        41          42
 IAtWgt=          16          16
 AtmWgt=  15.9949146  15.9949146
 NucSpn=           0           0
 AtZEff=   5.6000000   5.6000000
 NQMom=    0.0000000   0.0000000
 NMagM=    0.0000000   0.0000000
 AtZNuc=   8.0000000   8.0000000
 Leave Link  101 at Sun Mar 10 13:14:57 2024, MaxMem=  2684354560 cpu:               7.2 elap:               0.3
 (Enter /s/ls4/groups/g0130/bin/g16/l103.exe)

 GradGradGradGradGradGradGradGradGradGradGradGradGradGradGradGradGradGrad
 Berny optimization.
 Initialization pass.
                           ----------------------------
                           !    Initial Parameters    !
                           ! (Angstroms and Degrees)  !
 --------------------------                            --------------------------
 ! Name  Definition              Value          Derivative Info.                !
 --------------------------------------------------------------------------------
 ! R1    R(1,2)                  1.3912         estimate D2E/DX2                !
 ! R2    R(1,6)                  1.394          estimate D2E/DX2                !
 ! R3    R(1,7)                  1.0818         estimate D2E/DX2                !
 ! R4    R(2,3)                  1.3922         estimate D2E/DX2                !
 ! R5    R(2,8)                  1.0816         estimate D2E/DX2                !
 ! R6    R(3,4)                  1.3803         estimate D2E/DX2                !
 ! R7    R(3,10)                 1.0812         estimate D2E/DX2                !
 ! R8    R(4,5)                  1.3862         estimate D2E/DX2                !
 ! R9    R(4,13)                 1.42           estimate D2E/DX2                !
 ! R10   R(5,6)                  1.3803         estimate D2E/DX2                !
 ! R11   R(5,11)                 1.505          estimate D2E/DX2                !
 ! R12   R(6,9)                  1.083          estimate D2E/DX2                !
 ! R13   R(11,12)                1.5151         estimate D2E/DX2                !
 ! R14   R(11,14)                1.5333         estimate D2E/DX2                !
 ! R15   R(11,18)                1.5387         estimate D2E/DX2                !
 ! R16   R(12,13)                1.3071         estimate D2E/DX2                !
 ! R17   R(12,22)                1.432          estimate D2E/DX2                !
 ! R18   R(13,30)                1.4499         estimate D2E/DX2                !
 ! R19   R(14,15)                1.0882         estimate D2E/DX2                !
 ! R20   R(14,16)                1.0906         estimate D2E/DX2                !
 ! R21   R(14,17)                1.0902         estimate D2E/DX2                !
 ! R22   R(18,19)                1.09           estimate D2E/DX2                !
 ! R23   R(18,20)                1.0899         estimate D2E/DX2                !
 ! R24   R(18,21)                1.0898         estimate D2E/DX2                !
 ! R25   R(22,34)                1.3538         estimate D2E/DX2                !
 ! R26   R(22,35)                1.0845         estimate D2E/DX2                !
 ! R27   R(23,24)                1.4591         estimate D2E/DX2                !
 ! R28   R(23,29)                1.3925         estimate D2E/DX2                !
 ! R29   R(23,34)                1.4417         estimate D2E/DX2                !
 ! R30   R(24,25)                1.2482         estimate D2E/DX2                !
 ! R31   R(24,26)                1.4479         estimate D2E/DX2                !
 ! R32   R(26,27)                1.3582         estimate D2E/DX2                !
 ! R33   R(26,39)                1.0825         estimate D2E/DX2                !
 ! R34   R(27,28)                1.4112         estimate D2E/DX2                !
 ! R35   R(27,38)                1.0809         estimate D2E/DX2                !
 ! R36   R(28,29)                1.3806         estimate D2E/DX2                !
 ! R37   R(28,40)                1.4309         estimate D2E/DX2                !
 ! R38   R(29,37)                1.0822         estimate D2E/DX2                !
 ! R39   R(30,31)                1.085          estimate D2E/DX2                !
 ! R40   R(30,32)                1.0903         estimate D2E/DX2                !
 ! R41   R(30,33)                1.0876         estimate D2E/DX2                !
 ! R42   R(34,36)                1.0865         estimate D2E/DX2                !
 ! R43   R(40,41)                1.2232         estimate D2E/DX2                !
 ! R44   R(40,42)                1.2231         estimate D2E/DX2                !
 ! A1    A(2,1,6)              121.0028         estimate D2E/DX2                !
 ! A2    A(2,1,7)              119.4326         estimate D2E/DX2                !
 ! A3    A(6,1,7)              119.5644         estimate D2E/DX2                !
 ! A4    A(1,2,3)              121.1427         estimate D2E/DX2                !
 ! A5    A(1,2,8)              119.633          estimate D2E/DX2                !
 ! A6    A(3,2,8)              119.2241         estimate D2E/DX2                !
 ! A7    A(2,3,4)              116.4858         estimate D2E/DX2                !
 ! A8    A(2,3,10)             121.1974         estimate D2E/DX2                !
 ! A9    A(4,3,10)             122.3139         estimate D2E/DX2                !
 ! A10   A(3,4,5)              123.3892         estimate D2E/DX2                !
 ! A11   A(3,4,13)             128.1383         estimate D2E/DX2                !
 ! A12   A(5,4,13)             108.4722         estimate D2E/DX2                !
 ! A13   A(4,5,6)              119.658          estimate D2E/DX2                !
 ! A14   A(4,5,11)             108.7285         estimate D2E/DX2                !
 ! A15   A(6,5,11)             131.6104         estimate D2E/DX2                !
 ! A16   A(1,6,5)              118.3194         estimate D2E/DX2                !
 ! A17   A(1,6,9)              120.5999         estimate D2E/DX2                !
 ! A18   A(5,6,9)              121.0802         estimate D2E/DX2                !
 ! A19   A(5,11,12)            101.1038         estimate D2E/DX2                !
 ! A20   A(5,11,14)            112.7714         estimate D2E/DX2                !
 ! A21   A(5,11,18)            111.2515         estimate D2E/DX2                !
 ! A22   A(12,11,14)           110.6124         estimate D2E/DX2                !
 ! A23   A(12,11,18)           110.1403         estimate D2E/DX2                !
 ! A24   A(14,11,18)           110.6062         estimate D2E/DX2                !
 ! A25   A(11,12,13)           110.4099         estimate D2E/DX2                !
 ! A26   A(11,12,22)           123.0793         estimate D2E/DX2                !
 ! A27   A(13,12,22)           126.3382         estimate D2E/DX2                !
 ! A28   A(4,13,12)            111.0707         estimate D2E/DX2                !
 ! A29   A(4,13,30)            121.6448         estimate D2E/DX2                !
 ! A30   A(12,13,30)           127.2839         estimate D2E/DX2                !
 ! A31   A(11,14,15)           110.6009         estimate D2E/DX2                !
 ! A32   A(11,14,16)           109.9974         estimate D2E/DX2                !
 ! A33   A(11,14,17)           109.0298         estimate D2E/DX2                !
 ! A34   A(15,14,16)           108.8741         estimate D2E/DX2                !
 ! A35   A(15,14,17)           109.6541         estimate D2E/DX2                !
 ! A36   A(16,14,17)           108.6555         estimate D2E/DX2                !
 ! A37   A(11,18,19)           111.3164         estimate D2E/DX2                !
 ! A38   A(11,18,20)           108.62           estimate D2E/DX2                !
 ! A39   A(11,18,21)           110.7088         estimate D2E/DX2                !
 ! A40   A(19,18,20)           108.644          estimate D2E/DX2                !
 ! A41   A(19,18,21)           109.2341         estimate D2E/DX2                !
 ! A42   A(20,18,21)           108.2404         estimate D2E/DX2                !
 ! A43   A(12,22,34)           129.2855         estimate D2E/DX2                !
 ! A44   A(12,22,35)           113.6277         estimate D2E/DX2                !
 ! A45   A(34,22,35)           117.0612         estimate D2E/DX2                !
 ! A46   A(24,23,29)           119.6779         estimate D2E/DX2                !
 ! A47   A(24,23,34)           123.1235         estimate D2E/DX2                !
 ! A48   A(29,23,34)           116.9705         estimate D2E/DX2                !
 ! A49   A(23,24,25)           123.0162         estimate D2E/DX2                !
 ! A50   A(23,24,26)           115.9472         estimate D2E/DX2                !
 ! A51   A(25,24,26)           121.0306         estimate D2E/DX2                !
 ! A52   A(24,26,27)           122.728          estimate D2E/DX2                !
 ! A53   A(24,26,39)           116.5354         estimate D2E/DX2                !
 ! A54   A(27,26,39)           120.7366         estimate D2E/DX2                !
 ! A55   A(26,27,28)           119.4739         estimate D2E/DX2                !
 ! A56   A(26,27,38)           121.2188         estimate D2E/DX2                !
 ! A57   A(28,27,38)           119.3038         estimate D2E/DX2                !
 ! A58   A(27,28,29)           120.7258         estimate D2E/DX2                !
 ! A59   A(27,28,40)           119.7107         estimate D2E/DX2                !
 ! A60   A(29,28,40)           119.5613         estimate D2E/DX2                !
 ! A61   A(23,29,28)           121.3205         estimate D2E/DX2                !
 ! A62   A(23,29,37)           119.6746         estimate D2E/DX2                !
 ! A63   A(28,29,37)           118.9973         estimate D2E/DX2                !
 ! A64   A(13,30,31)           109.1674         estimate D2E/DX2                !
 ! A65   A(13,30,32)           109.6182         estimate D2E/DX2                !
 ! A66   A(13,30,33)           108.3761         estimate D2E/DX2                !
 ! A67   A(31,30,32)           109.8406         estimate D2E/DX2                !
 ! A68   A(31,30,33)           109.974          estimate D2E/DX2                !
 ! A69   A(32,30,33)           109.8399         estimate D2E/DX2                !
 ! A70   A(22,34,23)           131.6613         estimate D2E/DX2                !
 ! A71   A(22,34,36)           114.4012         estimate D2E/DX2                !
 ! A72   A(23,34,36)           113.8353         estimate D2E/DX2                !
 ! A73   A(28,40,41)           119.0589         estimate D2E/DX2                !
 ! A74   A(28,40,42)           118.5369         estimate D2E/DX2                !
 ! A75   A(41,40,42)           122.4042         estimate D2E/DX2                !
 ! D1    D(6,1,2,3)              0.1603         estimate D2E/DX2                !
 ! D2    D(6,1,2,8)           -179.7054         estimate D2E/DX2                !
 ! D3    D(7,1,2,3)            179.9732         estimate D2E/DX2                !
 ! D4    D(7,1,2,8)              0.1075         estimate D2E/DX2                !
 ! D5    D(2,1,6,5)              0.1619         estimate D2E/DX2                !
 ! D6    D(2,1,6,9)            179.9205         estimate D2E/DX2                !
 ! D7    D(7,1,6,5)           -179.6507         estimate D2E/DX2                !
 ! D8    D(7,1,6,9)              0.1079         estimate D2E/DX2                !
 ! D9    D(1,2,3,4)             -0.143          estimate D2E/DX2                !
 ! D10   D(1,2,3,10)          -179.5428         estimate D2E/DX2                !
 ! D11   D(8,2,3,4)            179.7232         estimate D2E/DX2                !
 ! D12   D(8,2,3,10)             0.3234         estimate D2E/DX2                !
 ! D13   D(2,3,4,5)             -0.199          estimate D2E/DX2                !
 ! D14   D(2,3,4,13)           179.5415         estimate D2E/DX2                !
 ! D15   D(10,3,4,5)           179.1935         estimate D2E/DX2                !
 ! D16   D(10,3,4,13)           -1.066          estimate D2E/DX2                !
 ! D17   D(3,4,5,6)              0.5254         estimate D2E/DX2                !
 ! D18   D(3,4,5,11)           179.9604         estimate D2E/DX2                !
 ! D19   D(13,4,5,6)          -179.2594         estimate D2E/DX2                !
 ! D20   D(13,4,5,11)            0.1756         estimate D2E/DX2                !
 ! D21   D(3,4,13,12)          177.0309         estimate D2E/DX2                !
 ! D22   D(3,4,13,30)           -2.7216         estimate D2E/DX2                !
 ! D23   D(5,4,13,12)           -3.1975         estimate D2E/DX2                !
 ! D24   D(5,4,13,30)          177.0499         estimate D2E/DX2                !
 ! D25   D(4,5,6,1)             -0.4882         estimate D2E/DX2                !
 ! D26   D(4,5,6,9)            179.7543         estimate D2E/DX2                !
 ! D27   D(11,5,6,1)          -179.7726         estimate D2E/DX2                !
 ! D28   D(11,5,6,9)             0.47           estimate D2E/DX2                !
 ! D29   D(4,5,11,12)            2.3652         estimate D2E/DX2                !
 ! D30   D(4,5,11,14)          120.4952         estimate D2E/DX2                !
 ! D31   D(4,5,11,18)         -114.5594         estimate D2E/DX2                !
 ! D32   D(6,5,11,12)         -178.2914         estimate D2E/DX2                !
 ! D33   D(6,5,11,14)          -60.1615         estimate D2E/DX2                !
 ! D34   D(6,5,11,18)           64.784          estimate D2E/DX2                !
 ! D35   D(5,11,12,13)          -4.3882         estimate D2E/DX2                !
 ! D36   D(5,11,12,22)        -179.887          estimate D2E/DX2                !
 ! D37   D(14,11,12,13)       -124.0735         estimate D2E/DX2                !
 ! D38   D(14,11,12,22)         60.4277         estimate D2E/DX2                !
 ! D39   D(18,11,12,13)        113.3487         estimate D2E/DX2                !
 ! D40   D(18,11,12,22)        -62.1501         estimate D2E/DX2                !
 ! D41   D(5,11,14,15)         -56.1927         estimate D2E/DX2                !
 ! D42   D(5,11,14,16)        -176.4947         estimate D2E/DX2                !
 ! D43   D(5,11,14,17)          64.4537         estimate D2E/DX2                !
 ! D44   D(12,11,14,15)         56.2053         estimate D2E/DX2                !
 ! D45   D(12,11,14,16)        -64.0966         estimate D2E/DX2                !
 ! D46   D(12,11,14,17)        176.8518         estimate D2E/DX2                !
 ! D47   D(18,11,14,15)        178.5109         estimate D2E/DX2                !
 ! D48   D(18,11,14,16)         58.209          estimate D2E/DX2                !
 ! D49   D(18,11,14,17)        -60.8426         estimate D2E/DX2                !
 ! D50   D(5,11,18,19)          56.8867         estimate D2E/DX2                !
 ! D51   D(5,11,18,20)         -62.6903         estimate D2E/DX2                !
 ! D52   D(5,11,18,21)         178.5929         estimate D2E/DX2                !
 ! D53   D(12,11,18,19)        -54.3811         estimate D2E/DX2                !
 ! D54   D(12,11,18,20)       -173.9581         estimate D2E/DX2                !
 ! D55   D(12,11,18,21)         67.3251         estimate D2E/DX2                !
 ! D56   D(14,11,18,19)       -176.9625         estimate D2E/DX2                !
 ! D57   D(14,11,18,20)         63.4605         estimate D2E/DX2                !
 ! D58   D(14,11,18,21)        -55.2563         estimate D2E/DX2                !
 ! D59   D(11,12,13,4)           4.8367         estimate D2E/DX2                !
 ! D60   D(11,12,13,30)       -175.4281         estimate D2E/DX2                !
 ! D61   D(22,12,13,4)        -179.8458         estimate D2E/DX2                !
 ! D62   D(22,12,13,30)         -0.1105         estimate D2E/DX2                !
 ! D63   D(11,12,22,34)       -140.4916         estimate D2E/DX2                !
 ! D64   D(11,12,22,35)         37.5915         estimate D2E/DX2                !
 ! D65   D(13,12,22,34)         44.7473         estimate D2E/DX2                !
 ! D66   D(13,12,22,35)       -137.1696         estimate D2E/DX2                !
 ! D67   D(4,13,30,31)        -161.5802         estimate D2E/DX2                !
 ! D68   D(4,13,30,32)          78.0641         estimate D2E/DX2                !
 ! D69   D(4,13,30,33)         -41.8086         estimate D2E/DX2                !
 ! D70   D(12,13,30,31)         18.71           estimate D2E/DX2                !
 ! D71   D(12,13,30,32)       -101.6457         estimate D2E/DX2                !
 ! D72   D(12,13,30,33)        138.4816         estimate D2E/DX2                !
 ! D73   D(12,22,34,23)         10.8553         estimate D2E/DX2                !
 ! D74   D(12,22,34,36)       -173.112          estimate D2E/DX2                !
 ! D75   D(35,22,34,23)       -167.1726         estimate D2E/DX2                !
 ! D76   D(35,22,34,36)          8.8602         estimate D2E/DX2                !
 ! D77   D(29,23,24,25)       -175.4418         estimate D2E/DX2                !
 ! D78   D(29,23,24,26)          3.6727         estimate D2E/DX2                !
 ! D79   D(34,23,24,25)         -1.0982         estimate D2E/DX2                !
 ! D80   D(34,23,24,26)        178.0163         estimate D2E/DX2                !
 ! D81   D(24,23,29,28)         -4.2016         estimate D2E/DX2                !
 ! D82   D(24,23,29,37)        176.8058         estimate D2E/DX2                !
 ! D83   D(34,23,29,28)       -178.8873         estimate D2E/DX2                !
 ! D84   D(34,23,29,37)          2.1201         estimate D2E/DX2                !
 ! D85   D(24,23,34,22)         21.5357         estimate D2E/DX2                !
 ! D86   D(24,23,34,36)       -154.5146         estimate D2E/DX2                !
 ! D87   D(29,23,34,22)       -163.978          estimate D2E/DX2                !
 ! D88   D(29,23,34,36)         19.9717         estimate D2E/DX2                !
 ! D89   D(23,24,26,27)         -1.0945         estimate D2E/DX2                !
 ! D90   D(23,24,26,39)        178.8417         estimate D2E/DX2                !
 ! D91   D(25,24,26,27)        178.0391         estimate D2E/DX2                !
 ! D92   D(25,24,26,39)         -2.0247         estimate D2E/DX2                !
 ! D93   D(24,26,27,28)         -1.066          estimate D2E/DX2                !
 ! D94   D(24,26,27,38)        179.6146         estimate D2E/DX2                !
 ! D95   D(39,26,27,28)        179.0005         estimate D2E/DX2                !
 ! D96   D(39,26,27,38)         -0.319          estimate D2E/DX2                !
 ! D97   D(26,27,28,29)          0.7073         estimate D2E/DX2                !
 ! D98   D(26,27,28,40)       -178.7565         estimate D2E/DX2                !
 ! D99   D(38,27,28,29)       -179.9601         estimate D2E/DX2                !
 ! D100  D(38,27,28,40)          0.5761         estimate D2E/DX2                !
 ! D101  D(27,28,29,23)          1.9787         estimate D2E/DX2                !
 ! D102  D(27,28,29,37)       -179.022          estimate D2E/DX2                !
 ! D103  D(40,28,29,23)       -178.5567         estimate D2E/DX2                !
 ! D104  D(40,28,29,37)          0.4426         estimate D2E/DX2                !
 ! D105  D(27,28,40,41)        179.392          estimate D2E/DX2                !
 ! D106  D(27,28,40,42)         -0.6195         estimate D2E/DX2                !
 ! D107  D(29,28,40,41)         -0.0781         estimate D2E/DX2                !
 ! D108  D(29,28,40,42)        179.9104         estimate D2E/DX2                !
 --------------------------------------------------------------------------------
 Trust Radius=3.00D-01 FncErr=5.00D-06 GrdErr=5.00D-06 EigMax=2.50D+02 EigMin=1.00D-04
 Number of steps in this run=    237 maximum allowed number of steps=    252.
 GradGradGradGradGradGradGradGradGradGradGradGradGradGradGradGradGradGrad

 Leave Link  103 at Sun Mar 10 13:14:57 2024, MaxMem=  2684354560 cpu:               0.5 elap:               0.0
 (Enter /s/ls4/groups/g0130/bin/g16/l202.exe)
                          Input orientation:                          
 ---------------------------------------------------------------------
 Center     Atomic      Atomic             Coordinates (Angstroms)
 Number     Number       Type             X           Y           Z
 ---------------------------------------------------------------------
      1          6           0       -2.399565    2.295671    0.596942
      2          6           0       -1.579625    1.218807    0.275406
      3          6           0       -0.265159    1.413534   -0.140065
      4          6           0        0.169129    2.721545   -0.215844
      5          6           0       -0.631521    3.810277    0.092683
      6          6           0       -1.931262    3.605823    0.509988
      7          1           0       -3.416748    2.112536    0.916294
      8          1           0       -1.967353    0.211572    0.346200
      9          1           0       -2.575612    4.439345    0.760666
     10          1           0        0.370562    0.577685   -0.397174
     11          6           0        0.169366    5.069578   -0.101634
     12          6           0        1.479996    4.506045   -0.611841
     13          7           0        1.450771    3.199313   -0.597302
     14          6           0       -0.451807    6.014036   -1.137528
     15          1           0       -0.584490    5.504095   -2.089608
     16          1           0        0.194420    6.879544   -1.287946
     17          1           0       -1.417830    6.359925   -0.769059
     18          6           0        0.391264    5.801073    1.233803
     19          1           0        0.881503    5.155499    1.962525
     20          1           0       -0.578056    6.101778    1.631124
     21          1           0        0.992684    6.697849    1.086676
     22          6           0        2.603881    5.325930   -0.951390
     23          6           0        3.454706    4.372414   -3.158857
     24          6           0        2.232824    3.789172   -3.702867
     25          8           0        1.111279    3.948367   -3.178676
     26          6           0        2.386043    3.016267   -4.917646
     27          6           0        3.583075    2.853399   -5.538270
     28          6           0        4.732427    3.473664   -5.003716
     29          6           0        4.654388    4.230048   -3.851450
     30          6           0        2.535454    2.292921   -0.919788
     31          1           0        3.476906    2.829219   -0.862178
     32          1           0        2.395513    1.898029   -1.926393
     33          1           0        2.527247    1.478283   -0.199244
     34          6           0        3.474383    5.203443   -1.980917
     35          1           0        2.737992    6.175079   -0.290240
     36          1           0        4.312369    5.894031   -1.944747
     37          1           0        5.550232    4.706382   -3.474885
     38          1           0        3.670590    2.265839   -6.441247
     39          1           0        1.488644    2.563064   -5.318892
     40          7           0        5.991140    3.327451   -5.668268
     41          8           0        6.977490    3.879434   -5.200691
     42          8           0        6.039182    2.651846   -6.686709
 ---------------------------------------------------------------------
                    Distance matrix (angstroms):
                    1          2          3          4          5
     1  C    0.000000
     2  C    1.391159   0.000000
     3  C    2.424260   1.392249   0.000000
     4  C    2.727669   2.357475   1.380305   0.000000
     5  C    2.382076   2.765503   2.435728   1.386206   0.000000
     6  C    1.394046   2.424153   2.829240   2.391740   1.380315
     7  H    1.081751   2.141147   3.396618   3.809350   3.364246
     8  H    2.143164   1.081604   2.139773   3.343713   3.846998
     9  H    2.157112   3.405779   3.912166   3.382013   2.149748
    10  H    3.407836   2.160239   1.081152   2.160924   3.419617
    11  C    3.844733   4.246123   3.681976   2.350809   1.504997
    12  C    4.625786   4.577600   3.582145   2.249361   2.332156
    13  N    4.131329   3.723886   2.518430   1.419993   2.277125
    14  C    4.541848   5.124702   4.711092   3.474991   2.530271
    15  H    4.561363   4.994725   4.542619   3.438244   2.762902
    16  H    5.594054   6.134757   5.604115   4.294065   3.465359
    17  H    4.398627   5.248636   5.117721   4.007779   2.803852
    18  C    4.525722   5.079379   4.644233   3.410911   2.512272
    19  H    4.561671   4.939743   4.442749   3.343187   2.755934
    20  H    4.344407   5.165705   5.021419   3.923716   2.760549
    21  H    5.579100   6.106949   5.568756   4.264481   3.458921
    22  C    6.050972   5.989591   4.918991   3.640311   3.722246
    23  C    7.258883   6.861770   5.630762   4.709746   5.252215
    24  C    6.494453   6.080148   4.957533   4.190226   4.755115
    25  O    5.414123   5.159665   4.189645   3.342322   3.709207
    26  C    7.337028   6.776811   5.694112   5.206583   5.902503
    27  C    8.587425   7.945073   6.784006   6.324605   7.098315
    28  C    9.144416   8.532028   7.271527   6.656808   7.406655
    29  C    8.560856   8.059865   6.775624   5.967475   6.608572
    30  C    5.162837   4.417701   3.037223   2.505743   3.654750
    31  H    6.078373   5.427341   4.065545   3.372051   4.330520
    32  H    5.433057   4.594669   3.241123   2.925909   4.110510
    33  H    5.057223   4.142344   2.793783   2.665838   3.937160
    34  C    7.042994   6.819921   5.633500   4.494442   4.806161
    35  H    6.498568   6.597454   5.631499   4.304821   4.134312
    36  H    8.028601   7.842346   6.654735   5.497291   5.738920
    37  H    9.251517   8.778537   7.468778   6.596756   7.193373
    38  H    9.294287   8.589206   7.478064   7.157062   7.974064
    39  H    7.084261   6.520542   5.587262   5.273266   5.944392
    40  N   10.522421   9.853432   8.565359   7.999491   8.790979
    41  O   11.137774  10.501942   9.173144   8.517229   9.269393
    42  O   11.153066  10.419734   9.172605   8.736960   9.581253
                    6          7          8          9         10
     6  C    0.000000
     7  H    2.145148   0.000000
     8  H    3.398392   2.457523   0.000000
     9  H    1.082952   2.479066   4.291366   0.000000
    10  H    3.910365   4.292398   2.480421   4.993290   0.000000
    11  C    2.632356   4.758202   5.326006   2.945447   4.506099
    12  C    3.702104   5.660581   5.589683   4.282076   4.087657
    13  N    3.581828   5.211986   4.636849   4.426457   2.842505
    14  C    3.271481   5.313263   6.177938   3.254741   5.547822
    15  H    3.489288   5.344137   5.988011   3.636251   5.295845
    16  H    4.297480   6.373662   7.197607   4.221902   6.366940
    17  H    3.079716   4.987625   6.272800   2.714617   6.063905
    18  C    3.276760   5.311033   6.131349   3.298563   5.472138
    19  H    3.524629   5.369282   5.930506   3.729476   5.175483
    20  H    3.052524   4.948050   6.186736   2.740732   5.960660
    21  H    4.294491   6.363742   7.168118   4.235547   6.328132
    22  C    5.065759   7.075458   6.981158   5.526691   5.276428
    23  C    6.561763   8.302457   7.680934   7.192488   5.615942
    24  C    5.926328   7.487684   6.843657   6.592943   4.970842
    25  O    4.793812   6.375115   5.988854   5.417808   4.432484
    26  C    6.960309   8.277921   7.384202   7.673747   5.517563
    27  C    8.219214   9.550277   8.509611   8.951047   6.475336
    28  C    8.650037  10.164066   9.173325   9.357781   6.973721
    29  C    7.923546   9.610332   8.809987   8.578363   6.604767
    30  C    4.870269   6.231568   5.119571   5.792586   2.811035
    31  H    5.633314   7.155352   6.160536   6.469861   3.864584
    32  H    5.251047   6.473736   5.200328   6.196019   2.860463
    33  H    4.990764   6.080935   4.701435   5.977330   2.345537
    34  C    6.162629   8.089205   7.742528   6.685998   5.791337
    35  H    5.389191   7.472670   7.622909   5.687844   6.078403
    36  H    7.088338   9.067773   8.773465   7.541860   6.796791
    37  H    8.547701  10.315872   9.556050   9.167363   7.303932
    38  H    9.027511  10.217009   9.059572   9.777868   7.090195
    39  H    6.838051   7.946282   7.040362   7.549810   5.423573
    40  N   10.050511  11.547330  10.450843  10.768321   8.181475
    41  O   10.585489  12.189324  11.145915  11.274442   8.810608
    42  O   10.781025  12.145416  10.932582  11.527065   8.717433
                   11         12         13         14         15
    11  C    0.000000
    12  C    1.515134   0.000000
    13  N    2.320685   1.307140   0.000000
    14  C    1.533275   2.506440   3.440104   0.000000
    15  H    2.170057   2.728003   3.417790   1.088164   0.000000
    16  H    2.164241   2.782682   3.949621   1.090568   1.772349
    17  H    2.151661   3.443687   4.271750   1.090234   1.780660
    18  C    1.538739   2.503764   3.353305   2.525734   3.476400
    19  H    2.185240   2.721644   3.271612   3.482116   4.323244
    20  H    2.150936   3.436980   4.184056   2.772917   3.768436
    21  H    2.177430   2.815393   3.909652   2.738839   3.741832
    22  C    2.591267   1.431999   2.444901   3.137732   3.390132
    23  C    4.541598   3.225621   3.457382   4.694842   4.328869
    24  C    4.343521   3.261150   3.256390   4.328767   3.671624
    25  O    3.407712   2.652470   2.709213   3.297956   2.545976
    26  C    5.685395   4.645462   4.424208   5.597258   4.796994
    27  C    6.791308   5.605701   5.392545   6.755474   6.023957
    28  C    6.884684   5.561716   5.501002   6.948178   6.394082
    29  C    5.906044   4.544008   4.681352   6.051546   5.672136
    30  C    3.738659   2.471182   1.449855   4.776801   4.627545
    31  H    4.066627   2.619554   2.076619   5.064944   5.015624
    32  H    4.283013   3.060713   2.086231   5.066660   4.680894
    33  H    4.297270   3.230219   2.068621   5.507103   5.428033
    34  C    3.804309   2.517601   3.166376   4.096747   4.071444
    35  H    2.802775   2.114629   3.256748   3.304338   3.837556
    36  H    4.608824   3.424249   4.155220   4.833567   4.914495
    37  H    6.361168   4.980359   5.230423   6.572493   6.339571
    38  H    7.765965   6.618096   6.320654   7.692371   6.894111
    39  H    5.936572   5.092306   4.764417   5.758330   4.834856
    40  N    8.241084   6.878005   6.807794   8.322073   7.796377
    41  O    8.588794   7.188368   7.224845   8.732713   8.336781
    42  O    9.146769   7.818456   7.644221   9.177727   8.552292
                   16         17         18         19         20
    16  H    0.000000
    17  H    1.771609   0.000000
    18  C    2.749739   2.756192   0.000000
    19  H    3.742990   3.768173   1.090017   0.000000
    20  H    3.118109   2.555923   1.089894   1.770758   0.000000
    21  H    2.511786   3.060805   1.089752   1.777165   1.766054
    22  C    2.886605   4.156507   3.145871   3.389179   4.170856
    23  C    4.518349   5.779528   5.542672   5.784735   6.495983
    24  C    4.420105   5.342590   5.640018   5.982440   6.457604
    25  O    3.606562   4.244792   4.839516   5.286011   5.534005
    26  C    5.736100   6.546775   7.040924   7.360483   7.822573
    27  C    6.764472   7.749203   8.045956   8.298197   8.903212
    28  C    6.782365   8.005528   7.947904   8.135521   8.895466
    29  C    5.786423   7.135078   6.819248   6.992383   7.806437
    30  C    5.162663   5.673772   4.641404   4.386073   5.541524
    31  H    5.230785   6.035975   4.769301   4.486272   5.776583
    32  H    5.483421   5.982434   5.407181   5.294055   6.258557
    33  H    5.983391   6.302281   5.030165   4.572049   5.862581
    34  C    3.748023   5.171054   4.494131   4.719752   5.502373
    35  H    2.821604   4.187397   2.823070   3.092094   3.833170
    36  H    4.284871   5.868090   5.048453   5.251956   6.061870
    37  H    6.179810   7.655690   7.070010   7.180819   8.097800
    38  H    7.741223   8.650276   9.064119   9.314103   9.895887
    39  H    6.046118   6.600358   7.390992   7.752959   8.068238
    40  N    8.087431   9.385679   9.225833   9.363714  10.204525
    41  O    8.385718   9.811911   9.406051   9.492158  10.425871
    42  O    9.010067  10.216431  10.225024  10.376858  11.174803
                   21         22         23         24         25
    21  H    0.000000
    22  C    2.937998   0.000000
    23  C    5.430816   2.550688   0.000000
    24  C    5.739170   3.173316   1.459149   0.000000
    25  O    5.076115   3.014356   2.381566   1.248191   0.000000
    26  C    7.179650   4.594908   2.464653   1.447945   2.349010
    27  C    8.085780   5.302046   2.825861   2.463241   3.588372
    28  C    7.840531   4.937909   2.417400   2.835449   4.082747
    29  C    6.624440   3.716972   1.392548   2.465851   3.617400
    30  C    5.080298   3.033945   3.191041   3.174253   3.141871
    31  H    4.993565   2.646449   2.767070   3.246346   3.494974
    32  H    5.838218   3.569951   2.960310   2.599760   2.724217
    33  H    5.590379   3.921222   4.242108   4.207406   4.121079
    34  C    4.219267   1.353774   1.441714   2.550832   2.931570
    35  H    2.283701   1.084509   3.462982   4.194493   3.993432
    36  H    4.566832   2.056314   2.127198   3.441792   3.944004
    37  H    6.748706   3.928467   2.145375   3.449413   4.512940
    38  H    9.136932   6.374994   3.906193   3.447672   4.474968
    39  H    7.640271   5.286989   3.435826   2.160713   2.577207
    40  N    9.053917   6.141366   3.717873   4.266254   5.513315
    41  O    9.126465   6.267166   4.101478   4.976292   6.205298
    42  O   10.112507   7.200410   4.699533   4.968419   6.186395
                   26         27         28         29         30
    26  C    0.000000
    27  C    1.358155   0.000000
    28  C    2.392099   1.411200   0.000000
    29  C    2.784857   2.426569   1.380552   0.000000
    30  C    4.065516   4.768859   4.785323   4.103290   0.000000
    31  H    4.203783   4.677359   4.375383   3.504930   1.085019
    32  H    3.193453   3.920292   4.172974   3.774477   1.090310
    33  H    4.964741   5.613458   5.650426   5.043367   1.087606
    34  C    3.820026   4.264889   3.702988   2.416361   3.237086
    35  H    5.613808   6.268137   5.787250   4.487531   3.938083
    36  H    4.564032   4.763478   3.923254   2.553691   4.144389
    37  H    3.866541   3.400119   2.127375   1.082235   4.630573
    38  H    2.129451   1.080857   2.157043   3.396030   5.637000
    39  H    1.082459   2.125809   3.383882   3.867061   4.530001
    40  N    3.695537   2.457723   1.430862   2.429488   5.963227
    41  O    4.680444   3.562129   2.289925   2.709278   6.369838
    42  O    4.075268   2.718823   2.283738   3.528041   6.757390
                   31         32         33         34         35
    31  H    0.000000
    32  H    1.780190   0.000000
    33  H    1.779428   1.782297   0.000000
    34  C    2.624600   3.477455   4.236537   0.000000
    35  H    3.473885   4.592106   4.702402   2.084403   0.000000
    36  H    3.356043   4.432009   5.072699   1.086481   2.301095
    37  H    3.827357   4.498547   5.503534   2.605409   4.495300
    38  H    5.610786   4.705849   6.394535   5.344395   7.347569
    39  H    4.887364   3.574036   5.335377   4.696471   6.316238
    40  N    5.446844   5.382695   6.732622   4.842516   6.900372
    41  O    5.672719   5.970051   7.112290   4.938796   6.881559
    42  O    6.365680   6.041951   7.469816   5.935766   8.014102
                   36         37         38         39         40
    36  H    0.000000
    37  H    2.298726   0.000000
    38  H    5.813276   4.276518   0.000000
    39  H    5.518481   4.948805   2.471621   0.000000
    40  N    4.823921   2.628075   2.666358   4.580264   0.000000
    41  O    4.665046   2.387324   3.883073   5.645727   1.223193
    42  O    5.998322   3.843957   2.412360   4.752494   1.223100
                   41         42
    41  O    0.000000
    42  O    2.143745   0.000000
 Stoichiometry    C19H18N2O3
 Framework group  C1[X(C19H18N2O3)]
 Deg. of freedom   120
 Full point group                 C1      NOp   1
 RotChk:  IX=0 Diff= 2.11D-15
 Largest Abelian subgroup         C1      NOp   1
 Largest concise Abelian subgroup C1      NOp   1
                         Standard orientation:                         
 ---------------------------------------------------------------------
 Center     Atomic      Atomic             Coordinates (Angstroms)
 Number     Number       Type             X           Y           Z
 ---------------------------------------------------------------------
      1          6           0        5.024691   -1.694826    0.272472
      2          6           0        4.192814   -2.546226   -0.447545
      3          6           0        2.944453   -2.123562   -0.896217
      4          6           0        2.584999   -0.827622   -0.585457
      5          6           0        3.393974    0.036215    0.136287
      6          6           0        4.632620   -0.390725    0.570741
      7          1           0        5.988965   -2.052228    0.608068
      8          1           0        4.517332   -3.555363   -0.662484
      9          1           0        5.284882    0.266111    1.132797
     10          1           0        2.294194   -2.786801   -1.449541
     11          6           0        2.683607    1.354961    0.282248
     12          6           0        1.367122    1.054896   -0.405108
     13          7           0        1.386428   -0.145097   -0.923044
     14          6           0        2.451288    1.745002    1.746771
     15          1           0        1.901753    0.964001    2.268450
     16          1           0        1.881013    2.673084    1.799592
     17          1           0        3.415863    1.900369    2.230574
     18          6           0        3.428161    2.475237   -0.464972
     19          1           0        3.552474    2.232894   -1.520412
     20          1           0        4.414228    2.596733   -0.016888
     21          1           0        2.893452    3.420441   -0.374228
     22          6           0        0.316379    2.018922   -0.536318
     23          6           0       -1.810252    0.739637    0.052646
     24          6           0       -1.281482   -0.292409    0.938308
     25          8           0       -0.098781   -0.305807    1.337080
     26          6           0       -2.221694   -1.311150    1.356295
     27          6           0       -3.525216   -1.308218    0.974968
     28          6           0       -4.006521   -0.265203    0.155242
     29          6           0       -3.164121    0.741107   -0.273275
     30          6           0        0.360181   -0.767129   -1.736661
     31          1           0       -0.290493    0.002292   -2.139005
     32          1           0       -0.219745   -1.460723   -1.127244
     33          1           0        0.845120   -1.305184   -2.547967
     34          6           0       -1.021918    1.848919   -0.423339
     35          1           0        0.671599    3.026062   -0.725120
     36          1           0       -1.609312    2.724557   -0.685383
     37          1           0       -3.566392    1.535873   -0.887894
     38          1           0       -4.204762   -2.084744    1.296647
     39          1           0       -1.834724   -2.092366    1.997913
     40          7           0       -5.385044   -0.242674   -0.227552
     41          8           0       -5.791945    0.673011   -0.929087
     42          8           0       -6.114229   -1.144400    0.161230
 ---------------------------------------------------------------------
 Rotational constants (GHZ):           0.5990112           0.1260047           0.1158406
 Leave Link  202 at Sun Mar 10 13:14:57 2024, MaxMem=  2684354560 cpu:               0.5 elap:               0.0
 (Enter /s/ls4/groups/g0130/bin/g16/l301.exe)
 Standard basis: def2TZVP (5D, 7F)
 Ernie: Thresh=  0.10000D-02 Tol=  0.10000D-05 Strict=F.
 AO basis set in the form of general basis input (Overlap normalization):
      1 0
 S   6 1.00       0.000000000000
      0.1357534968D+05  0.6064550360D-03
      0.2035233368D+04  0.4697908888D-02
      0.4632256236D+03  0.2433247765D-01
      0.1312001960D+03  0.9739996831D-01
      0.4285301589D+02  0.3019558425D+00
      0.1558418577D+02  0.6623360914D+00
 S   2 1.00       0.000000000000
      0.6206713851D+01  0.6559530854D+00
      0.2576489653D+01  0.3758563329D+00
 S   1 1.00       0.000000000000
      0.5769633942D+00  0.1000000000D+01
 S   1 1.00       0.000000000000
      0.2297283136D+00  0.1000000000D+01
 S   1 1.00       0.000000000000
      0.9516444003D-01  0.1000000000D+01
 P   4 1.00       0.000000000000
      0.3469723224D+02  0.1132722000D-01
      0.7958262283D+01  0.7616965920D-01
      0.2378082688D+01  0.3019225220D+00
      0.8143320818D+00  0.7278502735D+00
 P   1 1.00       0.000000000000
      0.2888754725D+00  0.1000000000D+01
 P   1 1.00       0.000000000000
      0.1005682367D+00  0.1000000000D+01
 D   1 1.00       0.000000000000
      0.1097000000D+01  0.1000000000D+01
 D   1 1.00       0.000000000000
      0.3180000000D+00  0.1000000000D+01
 F   1 1.00       0.000000000000
      0.7610000000D+00  0.1000000000D+01
 ****
      2 0
 S   6 1.00       0.000000000000
      0.1357534968D+05  0.6064550360D-03
      0.2035233368D+04  0.4697908888D-02
      0.4632256236D+03  0.2433247765D-01
      0.1312001960D+03  0.9739996831D-01
      0.4285301589D+02  0.3019558425D+00
      0.1558418577D+02  0.6623360914D+00
 S   2 1.00       0.000000000000
      0.6206713851D+01  0.6559530854D+00
      0.2576489653D+01  0.3758563329D+00
 S   1 1.00       0.000000000000
      0.5769633942D+00  0.1000000000D+01
 S   1 1.00       0.000000000000
      0.2297283136D+00  0.1000000000D+01
 S   1 1.00       0.000000000000
      0.9516444003D-01  0.1000000000D+01
 P   4 1.00       0.000000000000
      0.3469723224D+02  0.1132722000D-01
      0.7958262283D+01  0.7616965920D-01
      0.2378082688D+01  0.3019225220D+00
      0.8143320818D+00  0.7278502735D+00
 P   1 1.00       0.000000000000
      0.2888754725D+00  0.1000000000D+01
 P   1 1.00       0.000000000000
      0.1005682367D+00  0.1000000000D+01
 D   1 1.00       0.000000000000
      0.1097000000D+01  0.1000000000D+01
 D   1 1.00       0.000000000000
      0.3180000000D+00  0.1000000000D+01
 F   1 1.00       0.000000000000
      0.7610000000D+00  0.1000000000D+01
 ****
      3 0
 S   6 1.00       0.000000000000
      0.1357534968D+05  0.6064550360D-03
      0.2035233368D+04  0.4697908888D-02
      0.4632256236D+03  0.2433247765D-01
      0.1312001960D+03  0.9739996831D-01
      0.4285301589D+02  0.3019558425D+00
      0.1558418577D+02  0.6623360914D+00
 S   2 1.00       0.000000000000
      0.6206713851D+01  0.6559530854D+00
      0.2576489653D+01  0.3758563329D+00
 S   1 1.00       0.000000000000
      0.5769633942D+00  0.1000000000D+01
 S   1 1.00       0.000000000000
      0.2297283136D+00  0.1000000000D+01
 S   1 1.00       0.000000000000
      0.9516444003D-01  0.1000000000D+01
 P   4 1.00       0.000000000000
      0.3469723224D+02  0.1132722000D-01
      0.7958262283D+01  0.7616965920D-01
      0.2378082688D+01  0.3019225220D+00
      0.8143320818D+00  0.7278502735D+00
 P   1 1.00       0.000000000000
      0.2888754725D+00  0.1000000000D+01
 P   1 1.00       0.000000000000
      0.1005682367D+00  0.1000000000D+01
 D   1 1.00       0.000000000000
      0.1097000000D+01  0.1000000000D+01
 D   1 1.00       0.000000000000
      0.3180000000D+00  0.1000000000D+01
 F   1 1.00       0.000000000000
      0.7610000000D+00  0.1000000000D+01
 ****
      4 0
 S   6 1.00       0.000000000000
      0.1357534968D+05  0.6064550360D-03
      0.2035233368D+04  0.4697908888D-02
      0.4632256236D+03  0.2433247765D-01
      0.1312001960D+03  0.9739996831D-01
      0.4285301589D+02  0.3019558425D+00
      0.1558418577D+02  0.6623360914D+00
 S   2 1.00       0.000000000000
      0.6206713851D+01  0.6559530854D+00
      0.2576489653D+01  0.3758563329D+00
 S   1 1.00       0.000000000000
      0.5769633942D+00  0.1000000000D+01
 S   1 1.00       0.000000000000
      0.2297283136D+00  0.1000000000D+01
 S   1 1.00       0.000000000000
      0.9516444003D-01  0.1000000000D+01
 P   4 1.00       0.000000000000
      0.3469723224D+02  0.1132722000D-01
      0.7958262283D+01  0.7616965920D-01
      0.2378082688D+01  0.3019225220D+00
      0.8143320818D+00  0.7278502735D+00
 P   1 1.00       0.000000000000
      0.2888754725D+00  0.1000000000D+01
 P   1 1.00       0.000000000000
      0.1005682367D+00  0.1000000000D+01
 D   1 1.00       0.000000000000
      0.1097000000D+01  0.1000000000D+01
 D   1 1.00       0.000000000000
      0.3180000000D+00  0.1000000000D+01
 F   1 1.00       0.000000000000
      0.7610000000D+00  0.1000000000D+01
 ****
      5 0
 S   6 1.00       0.000000000000
      0.1357534968D+05  0.6064550360D-03
      0.2035233368D+04  0.4697908888D-02
      0.4632256236D+03  0.2433247765D-01
      0.1312001960D+03  0.9739996831D-01
      0.4285301589D+02  0.3019558425D+00
      0.1558418577D+02  0.6623360914D+00
 S   2 1.00       0.000000000000
      0.6206713851D+01  0.6559530854D+00
      0.2576489653D+01  0.3758563329D+00
 S   1 1.00       0.000000000000
      0.5769633942D+00  0.1000000000D+01
 S   1 1.00       0.000000000000
      0.2297283136D+00  0.1000000000D+01
 S   1 1.00       0.000000000000
      0.9516444003D-01  0.1000000000D+01
 P   4 1.00       0.000000000000
      0.3469723224D+02  0.1132722000D-01
      0.7958262283D+01  0.7616965920D-01
      0.2378082688D+01  0.3019225220D+00
      0.8143320818D+00  0.7278502735D+00
 P   1 1.00       0.000000000000
      0.2888754725D+00  0.1000000000D+01
 P   1 1.00       0.000000000000
      0.1005682367D+00  0.1000000000D+01
 D   1 1.00       0.000000000000
      0.1097000000D+01  0.1000000000D+01
 D   1 1.00       0.000000000000
      0.3180000000D+00  0.1000000000D+01
 F   1 1.00       0.000000000000
      0.7610000000D+00  0.1000000000D+01
 ****
      6 0
 S   6 1.00       0.000000000000
      0.1357534968D+05  0.6064550360D-03
      0.2035233368D+04  0.4697908888D-02
      0.4632256236D+03  0.2433247765D-01
      0.1312001960D+03  0.9739996831D-01
      0.4285301589D+02  0.3019558425D+00
      0.1558418577D+02  0.6623360914D+00
 S   2 1.00       0.000000000000
      0.6206713851D+01  0.6559530854D+00
      0.2576489653D+01  0.3758563329D+00
 S   1 1.00       0.000000000000
      0.5769633942D+00  0.1000000000D+01
 S   1 1.00       0.000000000000
      0.2297283136D+00  0.1000000000D+01
 S   1 1.00       0.000000000000
      0.9516444003D-01  0.1000000000D+01
 P   4 1.00       0.000000000000
      0.3469723224D+02  0.1132722000D-01
      0.7958262283D+01  0.7616965920D-01
      0.2378082688D+01  0.3019225220D+00
      0.8143320818D+00  0.7278502735D+00
 P   1 1.00       0.000000000000
      0.2888754725D+00  0.1000000000D+01
 P   1 1.00       0.000000000000
      0.1005682367D+00  0.1000000000D+01
 D   1 1.00       0.000000000000
      0.1097000000D+01  0.1000000000D+01
 D   1 1.00       0.000000000000
      0.3180000000D+00  0.1000000000D+01
 F   1 1.00       0.000000000000
      0.7610000000D+00  0.1000000000D+01
 ****
      7 0
 S   3 1.00       0.000000000000
      0.3406134100D+02  0.2543930721D-01
      0.5123574600D+01  0.1900859489D+00
      0.1164662600D+01  0.8524411301D+00
 S   1 1.00       0.000000000000
      0.3272304100D+00  0.1000000000D+01
 S   1 1.00       0.000000000000
      0.1030724100D+00  0.1000000000D+01
 P   1 1.00       0.000000000000
      0.8000000000D+00  0.1000000000D+01
 ****
      8 0
 S   3 1.00       0.000000000000
      0.3406134100D+02  0.2543930721D-01
      0.5123574600D+01  0.1900859489D+00
      0.1164662600D+01  0.8524411301D+00
 S   1 1.00       0.000000000000
      0.3272304100D+00  0.1000000000D+01
 S   1 1.00       0.000000000000
      0.1030724100D+00  0.1000000000D+01
 P   1 1.00       0.000000000000
      0.8000000000D+00  0.1000000000D+01
 ****
      9 0
 S   3 1.00       0.000000000000
      0.3406134100D+02  0.2543930721D-01
      0.5123574600D+01  0.1900859489D+00
      0.1164662600D+01  0.8524411301D+00
 S   1 1.00       0.000000000000
      0.3272304100D+00  0.1000000000D+01
 S   1 1.00       0.000000000000
      0.1030724100D+00  0.1000000000D+01
 P   1 1.00       0.000000000000
      0.8000000000D+00  0.1000000000D+01
 ****
     10 0
 S   3 1.00       0.000000000000
      0.3406134100D+02  0.2543930721D-01
      0.5123574600D+01  0.1900859489D+00
      0.1164662600D+01  0.8524411301D+00
 S   1 1.00       0.000000000000
      0.3272304100D+00  0.1000000000D+01
 S   1 1.00       0.000000000000
      0.1030724100D+00  0.1000000000D+01
 P   1 1.00       0.000000000000
      0.8000000000D+00  0.1000000000D+01
 ****
     11 0
 S   6 1.00       0.000000000000
      0.1357534968D+05  0.6064550360D-03
      0.2035233368D+04  0.4697908888D-02
      0.4632256236D+03  0.2433247765D-01
      0.1312001960D+03  0.9739996831D-01
      0.4285301589D+02  0.3019558425D+00
      0.1558418577D+02  0.6623360914D+00
 S   2 1.00       0.000000000000
      0.6206713851D+01  0.6559530854D+00
      0.2576489653D+01  0.3758563329D+00
 S   1 1.00       0.000000000000
      0.5769633942D+00  0.1000000000D+01
 S   1 1.00       0.000000000000
      0.2297283136D+00  0.1000000000D+01
 S   1 1.00       0.000000000000
      0.9516444003D-01  0.1000000000D+01
 P   4 1.00       0.000000000000
      0.3469723224D+02  0.1132722000D-01
      0.7958262283D+01  0.7616965920D-01
      0.2378082688D+01  0.3019225220D+00
      0.8143320818D+00  0.7278502735D+00
 P   1 1.00       0.000000000000
      0.2888754725D+00  0.1000000000D+01
 P   1 1.00       0.000000000000
      0.1005682367D+00  0.1000000000D+01
 D   1 1.00       0.000000000000
      0.1097000000D+01  0.1000000000D+01
 D   1 1.00       0.000000000000
      0.3180000000D+00  0.1000000000D+01
 F   1 1.00       0.000000000000
      0.7610000000D+00  0.1000000000D+01
 ****
     12 0
 S   6 1.00       0.000000000000
      0.1357534968D+05  0.6064550360D-03
      0.2035233368D+04  0.4697908888D-02
      0.4632256236D+03  0.2433247765D-01
      0.1312001960D+03  0.9739996831D-01
      0.4285301589D+02  0.3019558425D+00
      0.1558418577D+02  0.6623360914D+00
 S   2 1.00       0.000000000000
      0.6206713851D+01  0.6559530854D+00
      0.2576489653D+01  0.3758563329D+00
 S   1 1.00       0.000000000000
      0.5769633942D+00  0.1000000000D+01
 S   1 1.00       0.000000000000
      0.2297283136D+00  0.1000000000D+01
 S   1 1.00       0.000000000000
      0.9516444003D-01  0.1000000000D+01
 P   4 1.00       0.000000000000
      0.3469723224D+02  0.1132722000D-01
      0.7958262283D+01  0.7616965920D-01
      0.2378082688D+01  0.3019225220D+00
      0.8143320818D+00  0.7278502735D+00
 P   1 1.00       0.000000000000
      0.2888754725D+00  0.1000000000D+01
 P   1 1.00       0.000000000000
      0.1005682367D+00  0.1000000000D+01
 D   1 1.00       0.000000000000
      0.1097000000D+01  0.1000000000D+01
 D   1 1.00       0.000000000000
      0.3180000000D+00  0.1000000000D+01
 F   1 1.00       0.000000000000
      0.7610000000D+00  0.1000000000D+01
 ****
     13 0
 S   6 1.00       0.000000000000
      0.1973080065D+05  0.5862640263D-03
      0.2957895874D+04  0.4542882059D-02
      0.6732213360D+03  0.2355841345D-01
      0.1906824949D+03  0.9470919329D-01
      0.6229544190D+02  0.2971978491D+00
      0.2265416118D+02  0.6691624690D+00
 S   2 1.00       0.000000000000
      0.8979147743D+01  0.6459668363D+00
      0.3686300237D+01  0.3870057439D+00
 S   1 1.00       0.000000000000
      0.8466007680D+00  0.1000000000D+01
 S   1 1.00       0.000000000000
      0.3364713377D+00  0.1000000000D+01
 S   1 1.00       0.000000000000
      0.1364765367D+00  0.1000000000D+01
 P   4 1.00       0.000000000000
      0.4920038051D+02  0.1144882510D-01
      0.1134679054D+02  0.7842233797D-01
      0.3427397241D+01  0.3081809474D+00
      0.1178552513D+01  0.7202719637D+00
 P   1 1.00       0.000000000000
      0.4164220497D+00  0.1000000000D+01
 P   1 1.00       0.000000000000
      0.1426082601D+00  0.1000000000D+01
 D   1 1.00       0.000000000000
      0.1654000000D+01  0.1000000000D+01
 D   1 1.00       0.000000000000
      0.4690000000D+00  0.1000000000D+01
 F   1 1.00       0.000000000000
      0.1093000000D+01  0.1000000000D+01
 ****
     14 0
 S   6 1.00       0.000000000000
      0.1357534968D+05  0.6064550360D-03
      0.2035233368D+04  0.4697908888D-02
      0.4632256236D+03  0.2433247765D-01
      0.1312001960D+03  0.9739996831D-01
      0.4285301589D+02  0.3019558425D+00
      0.1558418577D+02  0.6623360914D+00
 S   2 1.00       0.000000000000
      0.6206713851D+01  0.6559530854D+00
      0.2576489653D+01  0.3758563329D+00
 S   1 1.00       0.000000000000
      0.5769633942D+00  0.1000000000D+01
 S   1 1.00       0.000000000000
      0.2297283136D+00  0.1000000000D+01
 S   1 1.00       0.000000000000
      0.9516444003D-01  0.1000000000D+01
 P   4 1.00       0.000000000000
      0.3469723224D+02  0.1132722000D-01
      0.7958262283D+01  0.7616965920D-01
      0.2378082688D+01  0.3019225220D+00
      0.8143320818D+00  0.7278502735D+00
 P   1 1.00       0.000000000000
      0.2888754725D+00  0.1000000000D+01
 P   1 1.00       0.000000000000
      0.1005682367D+00  0.1000000000D+01
 D   1 1.00       0.000000000000
      0.1097000000D+01  0.1000000000D+01
 D   1 1.00       0.000000000000
      0.3180000000D+00  0.1000000000D+01
 F   1 1.00       0.000000000000
      0.7610000000D+00  0.1000000000D+01
 ****
     15 0
 S   3 1.00       0.000000000000
      0.3406134100D+02  0.2543930721D-01
      0.5123574600D+01  0.1900859489D+00
      0.1164662600D+01  0.8524411301D+00
 S   1 1.00       0.000000000000
      0.3272304100D+00  0.1000000000D+01
 S   1 1.00       0.000000000000
      0.1030724100D+00  0.1000000000D+01
 P   1 1.00       0.000000000000
      0.8000000000D+00  0.1000000000D+01
 ****
     16 0
 S   3 1.00       0.000000000000
      0.3406134100D+02  0.2543930721D-01
      0.5123574600D+01  0.1900859489D+00
      0.1164662600D+01  0.8524411301D+00
 S   1 1.00       0.000000000000
      0.3272304100D+00  0.1000000000D+01
 S   1 1.00       0.000000000000
      0.1030724100D+00  0.1000000000D+01
 P   1 1.00       0.000000000000
      0.8000000000D+00  0.1000000000D+01
 ****
     17 0
 S   3 1.00       0.000000000000
      0.3406134100D+02  0.2543930721D-01
      0.5123574600D+01  0.1900859489D+00
      0.1164662600D+01  0.8524411301D+00
 S   1 1.00       0.000000000000
      0.3272304100D+00  0.1000000000D+01
 S   1 1.00       0.000000000000
      0.1030724100D+00  0.1000000000D+01
 P   1 1.00       0.000000000000
      0.8000000000D+00  0.1000000000D+01
 ****
     18 0
 S   6 1.00       0.000000000000
      0.1357534968D+05  0.6064550360D-03
      0.2035233368D+04  0.4697908888D-02
      0.4632256236D+03  0.2433247765D-01
      0.1312001960D+03  0.9739996831D-01
      0.4285301589D+02  0.3019558425D+00
      0.1558418577D+02  0.6623360914D+00
 S   2 1.00       0.000000000000
      0.6206713851D+01  0.6559530854D+00
      0.2576489653D+01  0.3758563329D+00
 S   1 1.00       0.000000000000
      0.5769633942D+00  0.1000000000D+01
 S   1 1.00       0.000000000000
      0.2297283136D+00  0.1000000000D+01
 S   1 1.00       0.000000000000
      0.9516444003D-01  0.1000000000D+01
 P   4 1.00       0.000000000000
      0.3469723224D+02  0.1132722000D-01
      0.7958262283D+01  0.7616965920D-01
      0.2378082688D+01  0.3019225220D+00
      0.8143320818D+00  0.7278502735D+00
 P   1 1.00       0.000000000000
      0.2888754725D+00  0.1000000000D+01
 P   1 1.00       0.000000000000
      0.1005682367D+00  0.1000000000D+01
 D   1 1.00       0.000000000000
      0.1097000000D+01  0.1000000000D+01
 D   1 1.00       0.000000000000
      0.3180000000D+00  0.1000000000D+01
 F   1 1.00       0.000000000000
      0.7610000000D+00  0.1000000000D+01
 ****
     19 0
 S   3 1.00       0.000000000000
      0.3406134100D+02  0.2543930721D-01
      0.5123574600D+01  0.1900859489D+00
      0.1164662600D+01  0.8524411301D+00
 S   1 1.00       0.000000000000
      0.3272304100D+00  0.1000000000D+01
 S   1 1.00       0.000000000000
      0.1030724100D+00  0.1000000000D+01
 P   1 1.00       0.000000000000
      0.8000000000D+00  0.1000000000D+01
 ****
     20 0
 S   3 1.00       0.000000000000
      0.3406134100D+02  0.2543930721D-01
      0.5123574600D+01  0.1900859489D+00
      0.1164662600D+01  0.8524411301D+00
 S   1 1.00       0.000000000000
      0.3272304100D+00  0.1000000000D+01
 S   1 1.00       0.000000000000
      0.1030724100D+00  0.1000000000D+01
 P   1 1.00       0.000000000000
      0.8000000000D+00  0.1000000000D+01
 ****
     21 0
 S   3 1.00       0.000000000000
      0.3406134100D+02  0.2543930721D-01
      0.5123574600D+01  0.1900859489D+00
      0.1164662600D+01  0.8524411301D+00
 S   1 1.00       0.000000000000
      0.3272304100D+00  0.1000000000D+01
 S   1 1.00       0.000000000000
      0.1030724100D+00  0.1000000000D+01
 P   1 1.00       0.000000000000
      0.8000000000D+00  0.1000000000D+01
 ****
     22 0
 S   6 1.00       0.000000000000
      0.1357534968D+05  0.6064550360D-03
      0.2035233368D+04  0.4697908888D-02
      0.4632256236D+03  0.2433247765D-01
      0.1312001960D+03  0.9739996831D-01
      0.4285301589D+02  0.3019558425D+00
      0.1558418577D+02  0.6623360914D+00
 S   2 1.00       0.000000000000
      0.6206713851D+01  0.6559530854D+00
      0.2576489653D+01  0.3758563329D+00
 S   1 1.00       0.000000000000
      0.5769633942D+00  0.1000000000D+01
 S   1 1.00       0.000000000000
      0.2297283136D+00  0.1000000000D+01
 S   1 1.00       0.000000000000
      0.9516444003D-01  0.1000000000D+01
 P   4 1.00       0.000000000000
      0.3469723224D+02  0.1132722000D-01
      0.7958262283D+01  0.7616965920D-01
      0.2378082688D+01  0.3019225220D+00
      0.8143320818D+00  0.7278502735D+00
 P   1 1.00       0.000000000000
      0.2888754725D+00  0.1000000000D+01
 P   1 1.00       0.000000000000
      0.1005682367D+00  0.1000000000D+01
 D   1 1.00       0.000000000000
      0.1097000000D+01  0.1000000000D+01
 D   1 1.00       0.000000000000
      0.3180000000D+00  0.1000000000D+01
 F   1 1.00       0.000000000000
      0.7610000000D+00  0.1000000000D+01
 ****
     23 0
 S   6 1.00       0.000000000000
      0.1357534968D+05  0.6064550360D-03
      0.2035233368D+04  0.4697908888D-02
      0.4632256236D+03  0.2433247765D-01
      0.1312001960D+03  0.9739996831D-01
      0.4285301589D+02  0.3019558425D+00
      0.1558418577D+02  0.6623360914D+00
 S   2 1.00       0.000000000000
      0.6206713851D+01  0.6559530854D+00
      0.2576489653D+01  0.3758563329D+00
 S   1 1.00       0.000000000000
      0.5769633942D+00  0.1000000000D+01
 S   1 1.00       0.000000000000
      0.2297283136D+00  0.1000000000D+01
 S   1 1.00       0.000000000000
      0.9516444003D-01  0.1000000000D+01
 P   4 1.00       0.000000000000
      0.3469723224D+02  0.1132722000D-01
      0.7958262283D+01  0.7616965920D-01
      0.2378082688D+01  0.3019225220D+00
      0.8143320818D+00  0.7278502735D+00
 P   1 1.00       0.000000000000
      0.2888754725D+00  0.1000000000D+01
 P   1 1.00       0.000000000000
      0.1005682367D+00  0.1000000000D+01
 D   1 1.00       0.000000000000
      0.1097000000D+01  0.1000000000D+01
 D   1 1.00       0.000000000000
      0.3180000000D+00  0.1000000000D+01
 F   1 1.00       0.000000000000
      0.7610000000D+00  0.1000000000D+01
 ****
     24 0
 S   6 1.00       0.000000000000
      0.1357534968D+05  0.6064550360D-03
      0.2035233368D+04  0.4697908888D-02
      0.4632256236D+03  0.2433247765D-01
      0.1312001960D+03  0.9739996831D-01
      0.4285301589D+02  0.3019558425D+00
      0.1558418577D+02  0.6623360914D+00
 S   2 1.00       0.000000000000
      0.6206713851D+01  0.6559530854D+00
      0.2576489653D+01  0.3758563329D+00
 S   1 1.00       0.000000000000
      0.5769633942D+00  0.1000000000D+01
 S   1 1.00       0.000000000000
      0.2297283136D+00  0.1000000000D+01
 S   1 1.00       0.000000000000
      0.9516444003D-01  0.1000000000D+01
 P   4 1.00       0.000000000000
      0.3469723224D+02  0.1132722000D-01
      0.7958262283D+01  0.7616965920D-01
      0.2378082688D+01  0.3019225220D+00
      0.8143320818D+00  0.7278502735D+00
 P   1 1.00       0.000000000000
      0.2888754725D+00  0.1000000000D+01
 P   1 1.00       0.000000000000
      0.1005682367D+00  0.1000000000D+01
 D   1 1.00       0.000000000000
      0.1097000000D+01  0.1000000000D+01
 D   1 1.00       0.000000000000
      0.3180000000D+00  0.1000000000D+01
 F   1 1.00       0.000000000000
      0.7610000000D+00  0.1000000000D+01
 ****
     25 0
 S   6 1.00       0.000000000000
      0.2703238263D+05  0.5722733521D-03
      0.4052387139D+04  0.4435323349D-02
      0.9223272271D+03  0.2302010771D-01
      0.2612407099D+03  0.9282249067D-01
      0.8535464135D+02  0.2937850001D+00
      0.3103503524D+02  0.6740160450D+00
 S   2 1.00       0.000000000000
      0.1226086073D+02  0.6383993703D+00
      0.4998707601D+01  0.3953458713D+00
 S   1 1.00       0.000000000000
      0.1170310816D+01  0.1000000000D+01
 S   1 1.00       0.000000000000
      0.4647474099D+00  0.1000000000D+01
 S   1 1.00       0.000000000000
      0.1850453636D+00  0.1000000000D+01
 P   4 1.00       0.000000000000
      0.6327495480D+02  0.1201833222D-01
      0.1462704938D+02  0.8300542179D-01
      0.4450122346D+01  0.3199174393D+00
      0.1527579965D+01  0.7071554292D+00
 P   1 1.00       0.000000000000
      0.5293511794D+00  0.1000000000D+01
 P   1 1.00       0.000000000000
      0.1747842127D+00  0.1000000000D+01
 D   1 1.00       0.000000000000
      0.2314000000D+01  0.1000000000D+01
 D   1 1.00       0.000000000000
      0.6450000000D+00  0.1000000000D+01
 F   1 1.00       0.000000000000
      0.1428000000D+01  0.1000000000D+01
 ****
     26 0
 S   6 1.00       0.000000000000
      0.1357534968D+05  0.6064550360D-03
      0.2035233368D+04  0.4697908888D-02
      0.4632256236D+03  0.2433247765D-01
      0.1312001960D+03  0.9739996831D-01
      0.4285301589D+02  0.3019558425D+00
      0.1558418577D+02  0.6623360914D+00
 S   2 1.00       0.000000000000
      0.6206713851D+01  0.6559530854D+00
      0.2576489653D+01  0.3758563329D+00
 S   1 1.00       0.000000000000
      0.5769633942D+00  0.1000000000D+01
 S   1 1.00       0.000000000000
      0.2297283136D+00  0.1000000000D+01
 S   1 1.00       0.000000000000
      0.9516444003D-01  0.1000000000D+01
 P   4 1.00       0.000000000000
      0.3469723224D+02  0.1132722000D-01
      0.7958262283D+01  0.7616965920D-01
      0.2378082688D+01  0.3019225220D+00
      0.8143320818D+00  0.7278502735D+00
 P   1 1.00       0.000000000000
      0.2888754725D+00  0.1000000000D+01
 P   1 1.00       0.000000000000
      0.1005682367D+00  0.1000000000D+01
 D   1 1.00       0.000000000000
      0.1097000000D+01  0.1000000000D+01
 D   1 1.00       0.000000000000
      0.3180000000D+00  0.1000000000D+01
 F   1 1.00       0.000000000000
      0.7610000000D+00  0.1000000000D+01
 ****
     27 0
 S   6 1.00       0.000000000000
      0.1357534968D+05  0.6064550360D-03
      0.2035233368D+04  0.4697908888D-02
      0.4632256236D+03  0.2433247765D-01
      0.1312001960D+03  0.9739996831D-01
      0.4285301589D+02  0.3019558425D+00
      0.1558418577D+02  0.6623360914D+00
 S   2 1.00       0.000000000000
      0.6206713851D+01  0.6559530854D+00
      0.2576489653D+01  0.3758563329D+00
 S   1 1.00       0.000000000000
      0.5769633942D+00  0.1000000000D+01
 S   1 1.00       0.000000000000
      0.2297283136D+00  0.1000000000D+01
 S   1 1.00       0.000000000000
      0.9516444003D-01  0.1000000000D+01
 P   4 1.00       0.000000000000
      0.3469723224D+02  0.1132722000D-01
      0.7958262283D+01  0.7616965920D-01
      0.2378082688D+01  0.3019225220D+00
      0.8143320818D+00  0.7278502735D+00
 P   1 1.00       0.000000000000
      0.2888754725D+00  0.1000000000D+01
 P   1 1.00       0.000000000000
      0.1005682367D+00  0.1000000000D+01
 D   1 1.00       0.000000000000
      0.1097000000D+01  0.1000000000D+01
 D   1 1.00       0.000000000000
      0.3180000000D+00  0.1000000000D+01
 F   1 1.00       0.000000000000
      0.7610000000D+00  0.1000000000D+01
 ****
     28 0
 S   6 1.00       0.000000000000
      0.1357534968D+05  0.6064550360D-03
      0.2035233368D+04  0.4697908888D-02
      0.4632256236D+03  0.2433247765D-01
      0.1312001960D+03  0.9739996831D-01
      0.4285301589D+02  0.3019558425D+00
      0.1558418577D+02  0.6623360914D+00
 S   2 1.00       0.000000000000
      0.6206713851D+01  0.6559530854D+00
      0.2576489653D+01  0.3758563329D+00
 S   1 1.00       0.000000000000
      0.5769633942D+00  0.1000000000D+01
 S   1 1.00       0.000000000000
      0.2297283136D+00  0.1000000000D+01
 S   1 1.00       0.000000000000
      0.9516444003D-01  0.1000000000D+01
 P   4 1.00       0.000000000000
      0.3469723224D+02  0.1132722000D-01
      0.7958262283D+01  0.7616965920D-01
      0.2378082688D+01  0.3019225220D+00
      0.8143320818D+00  0.7278502735D+00
 P   1 1.00       0.000000000000
      0.2888754725D+00  0.1000000000D+01
 P   1 1.00       0.000000000000
      0.1005682367D+00  0.1000000000D+01
 D   1 1.00       0.000000000000
      0.1097000000D+01  0.1000000000D+01
 D   1 1.00       0.000000000000
      0.3180000000D+00  0.1000000000D+01
 F   1 1.00       0.000000000000
      0.7610000000D+00  0.1000000000D+01
 ****
     29 0
 S   6 1.00       0.000000000000
      0.1357534968D+05  0.6064550360D-03
      0.2035233368D+04  0.4697908888D-02
      0.4632256236D+03  0.2433247765D-01
      0.1312001960D+03  0.9739996831D-01
      0.4285301589D+02  0.3019558425D+00
      0.1558418577D+02  0.6623360914D+00
 S   2 1.00       0.000000000000
      0.6206713851D+01  0.6559530854D+00
      0.2576489653D+01  0.3758563329D+00
 S   1 1.00       0.000000000000
      0.5769633942D+00  0.1000000000D+01
 S   1 1.00       0.000000000000
      0.2297283136D+00  0.1000000000D+01
 S   1 1.00       0.000000000000
      0.9516444003D-01  0.1000000000D+01
 P   4 1.00       0.000000000000
      0.3469723224D+02  0.1132722000D-01
      0.7958262283D+01  0.7616965920D-01
      0.2378082688D+01  0.3019225220D+00
      0.8143320818D+00  0.7278502735D+00
 P   1 1.00       0.000000000000
      0.2888754725D+00  0.1000000000D+01
 P   1 1.00       0.000000000000
      0.1005682367D+00  0.1000000000D+01
 D   1 1.00       0.000000000000
      0.1097000000D+01  0.1000000000D+01
 D   1 1.00       0.000000000000
      0.3180000000D+00  0.1000000000D+01
 F   1 1.00       0.000000000000
      0.7610000000D+00  0.1000000000D+01
 ****
     30 0
 S   6 1.00       0.000000000000
      0.1357534968D+05  0.6064550360D-03
      0.2035233368D+04  0.4697908888D-02
      0.4632256236D+03  0.2433247765D-01
      0.1312001960D+03  0.9739996831D-01
      0.4285301589D+02  0.3019558425D+00
      0.1558418577D+02  0.6623360914D+00
 S   2 1.00       0.000000000000
      0.6206713851D+01  0.6559530854D+00
      0.2576489653D+01  0.3758563329D+00
 S   1 1.00       0.000000000000
      0.5769633942D+00  0.1000000000D+01
 S   1 1.00       0.000000000000
      0.2297283136D+00  0.1000000000D+01
 S   1 1.00       0.000000000000
      0.9516444003D-01  0.1000000000D+01
 P   4 1.00       0.000000000000
      0.3469723224D+02  0.1132722000D-01
      0.7958262283D+01  0.7616965920D-01
      0.2378082688D+01  0.3019225220D+00
      0.8143320818D+00  0.7278502735D+00
 P   1 1.00       0.000000000000
      0.2888754725D+00  0.1000000000D+01
 P   1 1.00       0.000000000000
      0.1005682367D+00  0.1000000000D+01
 D   1 1.00       0.000000000000
[...]
     7  H    0.000004  -0.000002  -0.000000   0.000001   0.000000  -0.000000
     8  H   -0.000003   0.000000   0.000000  -0.000001  -0.000000   0.000008
     9  H   -0.000088   0.000411  -0.000009  -0.000042  -0.000001   0.000001
    10  H    0.000022   0.000002  -0.000002  -0.000023  -0.000022  -0.000221
    11  C    0.008067  -0.028866  -0.039327  -0.077313   0.013512  -0.012844
    12  C   -0.021580   0.015405  -0.006701   0.205388  -0.068981   0.059802
    13  N    0.000146  -0.000474   0.000820  -0.096544  -0.016664  -0.003293
    14  C    0.013072  -0.012095  -0.011585   0.002003  -0.006995   0.003591
    15  H   -0.000296   0.000046  -0.000200  -0.008618   0.001910  -0.001517
    16  H   -0.000198   0.000212   0.002084   0.010156   0.000839  -0.000380
    17  H   -0.000156   0.002020   0.000228  -0.000553  -0.000108   0.000107
    18  C    0.395802   0.417198   0.411533  -0.019603  -0.001714   0.000667
    19  H    0.495679  -0.021020  -0.020158   0.005023   0.000196  -0.000036
    20  H   -0.021020   0.485457  -0.020822  -0.000403  -0.000020  -0.000009
    21  H   -0.020158  -0.020822   0.492530  -0.006480  -0.000099   0.000019
    22  C    0.005023  -0.000403  -0.006480   5.625133   0.115348  -0.085055
    23  C    0.000196  -0.000020  -0.000099   0.115348   6.651187  -0.480793
    24  C   -0.000036  -0.000009   0.000019  -0.085055  -0.480793   5.192738
    25  O   -0.000007   0.000012  -0.000011  -0.042155  -0.228590   0.671905
    26  C    0.000000  -0.000001   0.000002   0.015858   0.020136   0.267365
    27  C   -0.000000   0.000000  -0.000000  -0.003560  -0.118515   0.106106
    28  C   -0.000001   0.000000   0.000000  -0.001473   0.011977  -0.121571
    29  C    0.000005  -0.000001  -0.000003   0.023793   0.220441   0.151227
    30  C   -0.000492   0.000030   0.000016  -0.006867  -0.045551   0.004581
    31  H    0.000006   0.000001  -0.000004  -0.025803  -0.014119   0.000658
    32  H    0.000036  -0.000000   0.000001   0.012912   0.007638  -0.009902
    33  H   -0.000054  -0.000006  -0.000005  -0.002700   0.000201   0.001223
    34  C   -0.000583   0.000122   0.000039   0.182447   0.045472   0.036950
    35  H    0.000250  -0.000078   0.000959   0.420103   0.007588  -0.000155
    36  H   -0.000006  -0.000001   0.000016  -0.045543  -0.046484   0.008817
    37  H    0.000000  -0.000000  -0.000000  -0.000407  -0.023505   0.004526
    38  H    0.000000  -0.000000  -0.000000  -0.000016  -0.004958   0.007591
    39  H    0.000000   0.000000   0.000000   0.000462   0.032725  -0.064017
    40  N    0.000000  -0.000000  -0.000000   0.000046   0.006249  -0.002105
    41  O   -0.000000  -0.000000  -0.000000   0.000013  -0.001970   0.001186
    42  O    0.000000  -0.000000  -0.000000  -0.000000  -0.002203   0.000910
              25         26         27         28         29         30
     1  C   -0.000086   0.000103   0.000014   0.000002  -0.000004  -0.000619
     2  C    0.000192  -0.000817  -0.000047  -0.000006   0.000016  -0.000114
     3  C   -0.002498   0.008663  -0.002771   0.000218  -0.000518  -0.022820
     4  C    0.002651  -0.006076  -0.000195   0.000311  -0.000956  -0.041404
     5  C    0.011540  -0.004847   0.000977   0.000032   0.000279   0.014614
     6  C    0.000632  -0.000471   0.000044  -0.000007   0.000009   0.001588
     7  H    0.000000  -0.000000   0.000000   0.000000   0.000000  -0.000002
     8  H    0.000001  -0.000025   0.000000  -0.000000   0.000000   0.000056
     9  H    0.000011  -0.000002   0.000000  -0.000000   0.000000   0.000027
    10  H   -0.000021   0.001270   0.000260   0.000144  -0.000194   0.000144
    11  C   -0.028748   0.001829  -0.000278   0.000027  -0.001262  -0.002195
    12  C    0.030413  -0.025239   0.007166  -0.003572   0.005852  -0.033323
    13  N   -0.018311  -0.007613   0.002408   0.002029  -0.008754   0.208389
    14  C   -0.005639   0.000848  -0.000078  -0.000001   0.000086   0.000008
    15  H    0.005456  -0.000324   0.000027   0.000008  -0.000073  -0.000105
    16  H   -0.000773  -0.000018   0.000002  -0.000001   0.000013  -0.000019
    17  H    0.000435   0.000013  -0.000001   0.000000  -0.000002   0.000021
    18  C    0.000674  -0.000069   0.000010  -0.000006   0.000054   0.000429
    19  H   -0.000007   0.000000  -0.000000  -0.000001   0.000005  -0.000492
    20  H    0.000012  -0.000001   0.000000   0.000000  -0.000001   0.000030
    21  H   -0.000011   0.000002  -0.000000   0.000000  -0.000003   0.000016
    22  C   -0.042155   0.015858  -0.003560  -0.001473   0.023793  -0.006867
    23  C   -0.228590   0.020136  -0.118515   0.011977   0.220441  -0.045551
    24  C    0.671905   0.267365   0.106106  -0.121571   0.151227   0.004581
    25  O    8.089582  -0.116620   0.014793  -0.002439   0.008473   0.003223
    26  C   -0.116620   5.762103   0.088036   0.104331  -0.234112   0.006861
    27  C    0.014793   0.088036   5.455323   0.176857   0.084450  -0.007646
    28  C   -0.002439   0.104331   0.176857   5.577146   0.184131   0.005605
    29  C    0.008473  -0.234112   0.084450   0.184131   5.528004  -0.001648
    30  C    0.003223   0.006861  -0.007646   0.005605  -0.001648   5.094474
    31  H   -0.000028  -0.000606   0.000627  -0.000672  -0.008631   0.410955
    32  H    0.000168   0.009922  -0.013763  -0.001126   0.004209   0.414786
    33  H   -0.000081  -0.000359   0.000650  -0.000188  -0.000270   0.410912
    34  C    0.063288   0.023958  -0.010556   0.040222  -0.207281   0.002115
    35  H   -0.000171   0.000135  -0.000032   0.000039  -0.000471  -0.000054
    36  H    0.000410  -0.000354   0.000034   0.000244  -0.001342   0.000399
    37  H   -0.000067  -0.003658   0.006724  -0.033206   0.409540  -0.000413
    38  H   -0.000126  -0.022955   0.405524  -0.033905   0.008242   0.000005
    39  H    0.011263   0.414139  -0.039678   0.010300  -0.005171  -0.000460
    40  N    0.000004   0.008220  -0.061110   0.418507  -0.056022   0.000198
    41  O   -0.000000  -0.002134   0.021448  -0.156048   0.021822  -0.000156
    42  O   -0.000000  -0.003092   0.023972  -0.154063   0.021482   0.000008
              31         32         33         34         35         36
     1  C    0.000009   0.000019  -0.000165  -0.000063   0.000004  -0.000000
     2  C    0.000002  -0.000079   0.000194   0.000135  -0.000003   0.000000
     3  C    0.001741  -0.003327  -0.007147  -0.000247   0.000030  -0.000000
     4  C    0.012167  -0.010396  -0.000946   0.008922  -0.000433   0.000084
     5  C   -0.002369   0.000403   0.002706  -0.007185   0.000451  -0.000022
     6  C   -0.000033  -0.000053   0.000178   0.000354  -0.000022   0.000001
     7  H   -0.000000   0.000000   0.000001  -0.000000  -0.000000  -0.000000
     8  H   -0.000001  -0.000006   0.000004   0.000000   0.000000   0.000000
     9  H   -0.000001  -0.000000   0.000001   0.000005  -0.000002   0.000000
    10  H    0.000293  -0.002234  -0.002329   0.000050  -0.000000  -0.000000
    11  C    0.007612  -0.004075   0.001118   0.015476   0.010065   0.000048
    12  C   -0.004170  -0.000098  -0.000641   0.040966  -0.050951   0.010612
    13  N   -0.025718  -0.036279  -0.027357   0.027790   0.005404   0.000082
    14  C   -0.000043   0.000070  -0.000003   0.004634  -0.005306  -0.000048
    15  H    0.000005  -0.000004  -0.000000   0.000359   0.000060   0.000008
    16  H    0.000001   0.000000  -0.000001  -0.001384  -0.001101  -0.000011
    17  H    0.000001  -0.000002   0.000000   0.000191   0.000091   0.000001
    18  C    0.000113  -0.000080   0.000266   0.001777  -0.002617   0.000053
    19  H    0.000006   0.000036  -0.000054  -0.000583   0.000250  -0.000006
    20  H    0.000001  -0.000000  -0.000006   0.000122  -0.000078  -0.000001
    21  H   -0.000004   0.000001  -0.000005   0.000039   0.000959   0.000016
    22  C   -0.025803   0.012912  -0.002700   0.182447   0.420103  -0.045543
    23  C   -0.014119   0.007638   0.000201   0.045472   0.007588  -0.046484
    24  C    0.000658  -0.009902   0.001223   0.036950  -0.000155   0.008817
    25  O   -0.000028   0.000168  -0.000081   0.063288  -0.000171   0.000410
    26  C   -0.000606   0.009922  -0.000359   0.023958   0.000135  -0.000354
    27  C    0.000627  -0.013763   0.000650  -0.010556  -0.000032   0.000034
    28  C   -0.000672  -0.001126  -0.000188   0.040222   0.000039   0.000244
    29  C   -0.008631   0.004209  -0.000270  -0.207281  -0.000471  -0.001342
    30  C    0.410955   0.414786   0.410912   0.002115  -0.000054   0.000399
    31  H    0.455419  -0.023265  -0.008987   0.017214  -0.000042   0.000735
    32  H   -0.023265   0.484095  -0.028797  -0.015174   0.000026  -0.000174
    33  H   -0.008987  -0.028797   0.453749   0.002721   0.000002   0.000010
    34  C    0.017214  -0.015174   0.002721   5.495672  -0.027058   0.430558
    35  H   -0.000042   0.000026   0.000002  -0.027058   0.456189  -0.003708
    36  H    0.000735  -0.000174   0.000010   0.430558  -0.003708   0.459911
    37  H    0.000306   0.000079  -0.000008  -0.008507  -0.000015   0.002396
    38  H   -0.000000  -0.000238   0.000007   0.000092  -0.000000  -0.000000
    39  H    0.000009   0.000402  -0.000025  -0.001530   0.000000   0.000003
    40  N    0.000006   0.000323  -0.000010  -0.000373   0.000000  -0.000010
    41  O    0.000005   0.000171   0.000001  -0.000792   0.000000  -0.000028
    42  O   -0.000000   0.000044   0.000001  -0.000036   0.000000  -0.000001
              37         38         39         40         41         42
     1  C   -0.000000  -0.000000   0.000027  -0.000000  -0.000000   0.000000
     2  C    0.000000   0.000002   0.000015   0.000000   0.000000  -0.000000
     3  C    0.000000  -0.000059   0.000870   0.000002   0.000000   0.000000
     4  C   -0.000002  -0.000020   0.000606   0.000001  -0.000001   0.000000
     5  C    0.000001  -0.000002   0.000440  -0.000000  -0.000000  -0.000000
     6  C    0.000000   0.000001  -0.000084  -0.000000   0.000000  -0.000000
     7  H    0.000000  -0.000000   0.000000   0.000000  -0.000000  -0.000000
     8  H    0.000000   0.000000   0.000000   0.000000   0.000000  -0.000000
     9  H   -0.000000   0.000000  -0.000000  -0.000000   0.000000  -0.000000
    10  H   -0.000001  -0.000012   0.000074  -0.000000  -0.000000   0.000000
    11  C    0.000002  -0.000001   0.000284  -0.000000  -0.000000   0.000000
    12  C    0.000356   0.000034  -0.001011  -0.000014  -0.000005  -0.000000
    13  N   -0.000079  -0.000002  -0.000366   0.000003   0.000002  -0.000001
    14  C   -0.000001   0.000000  -0.000199   0.000000  -0.000000  -0.000000
    15  H    0.000000  -0.000000   0.000195  -0.000000   0.000000   0.000000
    16  H    0.000000  -0.000000   0.000004  -0.000000  -0.000000   0.000000
    17  H   -0.000000   0.000000  -0.000002   0.000000   0.000000   0.000000
    18  C    0.000000   0.000000  -0.000007  -0.000000  -0.000000  -0.000000
    19  H    0.000000   0.000000   0.000000   0.000000  -0.000000   0.000000
    20  H   -0.000000  -0.000000   0.000000  -0.000000  -0.000000  -0.000000
    21  H   -0.000000  -0.000000   0.000000  -0.000000  -0.000000  -0.000000
    22  C   -0.000407  -0.000016   0.000462   0.000046   0.000013  -0.000000
    23  C   -0.023505  -0.004958   0.032725   0.006249  -0.001970  -0.002203
    24  C    0.004526   0.007591  -0.064017  -0.002105   0.001186   0.000910
    25  O   -0.000067  -0.000126   0.011263   0.000004  -0.000000  -0.000000
    26  C   -0.003658  -0.022955   0.414139   0.008220  -0.002134  -0.003092
    27  C    0.006724   0.405524  -0.039678  -0.061110   0.021448   0.023972
    28  C   -0.033206  -0.033905   0.010300   0.418507  -0.156048  -0.154063
    29  C    0.409540   0.008242  -0.005171  -0.056022   0.021822   0.021482
    30  C   -0.000413   0.000005  -0.000460   0.000198  -0.000156   0.000008
    31  H    0.000306  -0.000000   0.000009   0.000006   0.000005  -0.000000
    32  H    0.000079  -0.000238   0.000402   0.000323   0.000171   0.000044
    33  H   -0.000008   0.000007  -0.000025  -0.000010   0.000001   0.000001
    34  C   -0.008507   0.000092  -0.001530  -0.000373  -0.000792  -0.000036
    35  H   -0.000015  -0.000000   0.000000   0.000000   0.000000   0.000000
    36  H    0.002396  -0.000000   0.000003  -0.000010  -0.000028  -0.000001
    37  H    0.441139  -0.000182   0.000044  -0.006407   0.019632   0.001138
    38  H   -0.000182   0.444069  -0.006209  -0.005411   0.000963   0.018117
    39  H    0.000044  -0.006209   0.487289  -0.000069   0.000002  -0.000077
    40  N   -0.006407  -0.005411  -0.000069   5.476964   0.364063   0.360927
    41  O    0.019632   0.000963   0.000002   0.364063   8.277422  -0.136029
    42  O    0.001138   0.018117  -0.000077   0.360927  -0.136029   8.278744
 Mulliken charges:
               1
     1  C   -0.162242
     2  C   -0.155216
     3  C   -0.210662
     4  C    0.135890
     5  C   -0.047455
     6  C   -0.183498
     7  H    0.170096
     8  H    0.171336
     9  H    0.177543
    10  H    0.191771
    11  C    0.054997
    12  C    0.116201
    13  N   -0.010323
    14  C   -0.439007
    15  H    0.178858
    16  H    0.170281
    17  H    0.170140
    18  C   -0.408100
    19  H    0.172225
    20  H    0.178701
    21  H    0.174308
    22  C   -0.203800
    23  C   -0.074456
    24  C    0.271327
    25  O   -0.468756
    26  C   -0.304398
    27  C   -0.137223
    28  C   -0.023844
    29  C   -0.145414
    30  C   -0.415555
    31  H    0.206607
    32  H    0.213767
    33  H    0.206133
    34  C   -0.160758
    35  H    0.190824
    36  H    0.183309
    37  H    0.190575
    38  H    0.189455
    39  H    0.159751
    40  N    0.496018
    41  O   -0.409566
    42  O   -0.409842
 Sum of Mulliken charges =  -0.00000
 Mulliken charges with hydrogens summed into heavy atoms:
               1
     1  C    0.007854
     2  C    0.016120
     3  C   -0.018891
     4  C    0.135890
     5  C   -0.047455
     6  C   -0.005955
    11  C    0.054997
    12  C    0.116201
    13  N   -0.010323
    14  C    0.080272
    18  C    0.117135
    22  C   -0.012975
    23  C   -0.074456
    24  C    0.271327
    25  O   -0.468756
    26  C   -0.144647
    27  C    0.052232
    28  C   -0.023844
    29  C    0.045162
    30  C    0.210951
    34  C    0.022551
    40  N    0.496018
    41  O   -0.409566
    42  O   -0.409842
 Electronic spatial extent (au):  <R**2>=           7750.5284
 Charge=             -0.0000 electrons
 Dipole moment (field-independent basis, Debye):
    X=             12.6968    Y=              1.7530    Z=             -5.3388  Tot=             13.8847
 Quadrupole moment (field-independent basis, Debye-Ang):
   XX=           -173.2262   YY=           -122.9891   ZZ=           -145.5633
   XY=             -6.3972   XZ=             -4.9772   YZ=             -5.5616
 Traceless Quadrupole moment (field-independent basis, Debye-Ang):
   XX=            -25.9667   YY=             24.2705   ZZ=              1.6962
   XY=             -6.3972   XZ=             -4.9772   YZ=             -5.5616
 Octapole moment (field-independent basis, Debye-Ang**2):
  XXX=            388.5006  YYY=              6.0904  ZZZ=            -33.7614  XYY=             30.5257
  XXY=             49.4594  XXZ=             52.0398  XZZ=            -10.1113  YZZ=            -10.7843
  YYZ=            -13.1224  XYZ=             -0.8917
 Hexadecapole moment (field-independent basis, Debye-Ang**3):
 XXXX=          -8714.2390 YYYY=          -1939.1236 ZZZZ=           -928.8191 XXXY=           -234.4279
 XXXZ=           -122.4334 YYYX=            -77.7831 YYYZ=            -20.6510 ZZZX=             18.9744
 ZZZY=            -12.3307 XXYY=          -1541.6247 XXZZ=          -1401.7766 YYZZ=           -529.6283
 XXYZ=            -40.0258 YYXZ=             11.6716 ZZXY=             38.7160
 N-N= 2.076342150302D+03 E-N=-6.643366102758D+03  KE= 1.064719201733D+03
 No NMR shielding tensors so no spin-rotation constants.
 Leave Link  601 at Mon Mar 11 23:46:23 2024, MaxMem=  2684354560 cpu:              26.3 elap:               1.4
 (Enter /s/ls4/groups/g0130/bin/g16/l9999.exe)
 Electronic transition elements 
                 1             2             3             4             5 
      1  -0.106982D+04 -0.106976D+04 -0.106976D+04 -0.106975D+04 -0.106972D+04
      2  -0.959932D+00 -0.760177D+00  0.154938D+01  0.199853D+01  0.296054D+00
      3   0.895484D-01  0.235659D+00  0.967527D+00 -0.121966D+01 -0.341014D+00
      4   0.167447D+01  0.805821D+00 -0.716439D+00 -0.103496D+01 -0.424138D+00
      5   0.622759D-01  0.919295D-01 -0.197320D+00 -0.270488D+00 -0.487708D-01
      6  -0.635387D-02 -0.292407D-01 -0.122283D+00  0.164604D+00  0.550026D-01
      7  -0.107394D+00 -0.987960D-01  0.905665D-01  0.139968D+00  0.688281D-01
      8  -0.718409D+00 -0.805557D+00  0.665358D+00  0.527784D+00  0.721473D+00
      9   0.984972D+00  0.315022D+00  0.249424D+00  0.732484D+00  0.248334D-01
     10  -0.769097D+00 -0.256729D+00 -0.276963D+00  0.432177D+00  0.274940D-01
     11  -0.138767D-01  0.251549D+00  0.335962D+00 -0.166370D+01 -0.710986D+00
     12  -0.881955D-01 -0.701955D-01 -0.167844D+00 -0.966695D-02  0.827984D-01
     13   0.755128D-01  0.250775D+00  0.156678D+00 -0.839371D+00 -0.134269D+00
     14  -0.121626D+00 -0.320078D+00 -0.679173D-01  0.718091D+00 -0.472677D-01
     15  -0.254542D-01 -0.274963D+00 -0.174805D+00  0.147787D+01  0.558227D+00
     16   0.261763D-01  0.223208D+00 -0.236600D+00 -0.719541D+00  0.926347D-01
 1\1\GINC-N111\FOpt\RM062X TD-FC\def2TZVP\C19H18N2O3\ARTD\11-Mar-2024\0
 \\#p M062X/def2TZVP SCRF(PCM,Solvent=acetonitrile) TD(Singlets,NStates
 =5, root=1) integral=ultrafine opt guess=(read) geom=(allcheck) gfinpu
 t\\TITLE\\0,1\C,-2.0060470214,2.0047511457,-0.0947525398\C,-1.03424524
 9,1.0973493487,-0.507154943\C,0.2598711541,1.5120697357,-0.8048080213\
 C,0.5340664871,2.8661925216,-0.6838446728\C,-0.4232805353,3.7857284959
 ,-0.2558388154\C,-1.7008979397,3.3595831714,0.0421608943\H,-3.00523039
 64,1.6542365598,0.1266796584\H,-1.288504871,0.0498827679,-0.6026832242
 \H,-2.4543078388,4.0601585786,0.3821366179\H,1.0129847383,0.8077534587
 ,-1.1325623414\C,0.2209159201,5.1456334919,-0.1295039739\C,1.576090960
 3,4.8718151923,-0.7580982793\N,1.7416838505,3.5233681504,-0.9305337462
 \C,-0.561100215,6.2538404638,-0.8319918657\H,-0.6883978121,6.022080960
 3,-1.8873160368\H,-0.0341641075,7.2051905153,-0.7429806015\H,-1.540904
 7473,6.3648764671,-0.3646231556\C,0.4122775512,5.4990690759,1.36054668
 33\H,0.9676842915,4.7169473208,1.8787069384\H,-0.5635216992,5.60916641
 06,1.8364948462\H,0.9541596659,6.4409960924,1.4573867963\C,2.496576759
 1,5.8553253019,-1.1361455718\C,3.3148461212,4.7195530753,-3.1681453236
 \C,1.9636574776,4.3098442962,-3.6296388634\O,0.9717778336,5.0190482436
 ,-3.4195287897\C,1.8711152805,3.0727226644,-4.3724224501\C,2.983771477
 1,2.4358436116,-4.8281378253\C,4.2532354441,2.9805999955,-4.5269502233
 \C,4.4287493477,4.0882697618,-3.7271923219\C,2.9965708807,2.7830424087
 ,-0.921523135\H,3.8207811105,3.4777511722,-0.7960439507\H,3.1333515283
 ,2.2231307496,-1.8478561999\H,2.9813992686,2.0842734025,-0.0832799394\
 C,3.4302378377,5.7142734368,-2.1572258836\H,2.4530171783,6.7953297328,
 -0.594375949\H,4.2968619483,6.3666328598,-2.1741798796\H,5.4270632248,
 4.4169743151,-3.4738017385\H,2.9209900739,1.5425282684,-5.4312560551\H
 ,0.8793032343,2.7264107628,-4.631477525\N,5.4351753864,2.3118045541,-5
 .0573092336\O,6.5228949915,2.8093793503,-4.8432168581\O,5.2759214095,1
 .2863821119,-5.6904825012\\Version=ES64L-G16RevA.03\State=1-A\HF=-1069
 .8776244\RMSD=9.157e-09\RMSF=1.339e-05\Dipole=-1.2812815,0.2634062,2.8
 890612\PG=C01 [X(C19H18N2O3)]\\@


  THE LARGE PRINT GIVETH,
  AND THE SMALL PRINT TAKETH AWAY.

                     -- TOM WAITS
 Job cpu time:      34 days 11 hours 17 minutes 44.2 seconds.
 Elapsed time:       1 days 10 hours 28 minutes 49.5 seconds.
 File lengths (MBytes):  RWF=   2700 Int=      0 D2E=      0 Chk=    181 Scr=      1
 Normal termination of Gaussian 16 at Mon Mar 11 23:46:26 2024.
