 Entering Gaussian System, Link 0=/s/ls4/groups/g0130/bin/g16/g16
 Input=mc1_s1_b3lyp.gjf
 Output=mc1_s1_b3lyp.log
 Initial command:
 /s/ls4/groups/g0130/bin/g16/l1.exe "/dev/shm/scratch_artd/Gau-4602.inp" -scrdir="/dev/shm/scratch_artd/"
 Entering Link 1 = /s/ls4/groups/g0130/bin/g16/l1.exe PID=      4603.
  
 Copyright (c) 1988,1990,1992,1993,1995,1998,2003,2009,2016,
            Gaussian, Inc.  All Rights Reserved.
  
 This is part of the Gaussian(R) 16 program.  It is based on
 the Gaussian(R) 09 system (copyright 2009, Gaussian, Inc.),
 the Gaussian(R) 03 system (copyright 2003, Gaussian, Inc.),
 the Gaussian(R) 98 system (copyright 1998, Gaussian, Inc.),
 the Gaussian(R) 94 system (copyright 1995, Gaussian, Inc.),
 the Gaussian 92(TM) system (copyright 1992, Gaussian, Inc.),
 the Gaussian 90(TM) system (copyright 1990, Gaussian, Inc.),
 the Gaussian 88(TM) system (copyright 1988, Gaussian, Inc.),
 the Gaussian 86(TM) system (copyright 1986, Carnegie Mellon
 University), and the Gaussian 82(TM) system (copyright 1983,
 Carnegie Mellon University). Gaussian is a federally registered
 trademark of Gaussian, Inc.
  
 This software contains proprietary and confidential information,
 including trade secrets, belonging to Gaussian, Inc.
  
 This software is provided under written license and may be
 used, copied, transmitted, or stored only in accord with that
 written license.
  
 The following legend is applicable only to US Government
 contracts under FAR:
  
                    RESTRICTED RIGHTS LEGEND
  
 Use, reproduction and disclosure by the US Government is
 subject to restrictions as set forth in subparagraphs (a)
 and (c) of the Commercial Computer Software - Restricted
 Rights clause in FAR 52.227-19.
  
 Gaussian, Inc.
 340 Quinnipiac St., Bldg. 40, Wallingford CT 06492
  
  
 ---------------------------------------------------------------
 Warning -- This program may not be used in any manner that
 competes with the business of Gaussian, Inc. or will provide
 assistance to any competitor of Gaussian, Inc.  The licensee
 of this program is prohibited from giving any competitor of
 Gaussian, Inc. access to this program.  By using this program,
 the user acknowledges that Gaussian, Inc. is engaged in the
 business of creating and licensing software in the field of
 computational chemistry and represents and warrants to the
 licensee that it is not a competitor of Gaussian, Inc. and that
 it will not use this program in any manner prohibited above.
 ---------------------------------------------------------------
  

 Cite this work as:
 Gaussian 16, Revision A.03,
 M. J. Frisch, G. W. Trucks, H. B. Schlegel, G. E. Scuseria, 
 M. A. Robb, J. R. Cheeseman, G. Scalmani, V. Barone, 
 G. A. Petersson, H. Nakatsuji, X. Li, M. Caricato, A. V. Marenich, 
 J. Bloino, B. G. Janesko, R. Gomperts, B. Mennucci, H. P. Hratchian, 
 J. V. Ortiz, A. F. Izmaylov, J. L. Sonnenberg, D. Williams-Young, 
 F. Ding, F. Lipparini, F. Egidi, J. Goings, B. Peng, A. Petrone, 
 T. Henderson, D. Ranasinghe, V. G. Zakrzewski, J. Gao, N. Rega, 
 G. Zheng, W. Liang, M. Hada, M. Ehara, K. Toyota, R. Fukuda, 
 J. Hasegawa, M. Ishida, T. Nakajima, Y. Honda, O. Kitao, H. Nakai, 
 T. Vreven, K. Throssell, J. A. Montgomery, Jr., J. E. Peralta, 
 F. Ogliaro, M. J. Bearpark, J. J. Heyd, E. N. Brothers, K. N. Kudin, 
 V. N. Staroverov, T. A. Keith, R. Kobayashi, J. Normand, 
 K. Raghavachari, A. P. Rendell, J. C. Burant, S. S. Iyengar, 
 J. Tomasi, M. Cossi, J. M. Millam, M. Klene, C. Adamo, R. Cammi, 
 J. W. Ochterski, R. L. Martin, K. Morokuma, O. Farkas, 
 J. B. Foresman, and D. J. Fox, Gaussian, Inc., Wallingford CT, 2016.
 
 ******************************************
 Gaussian 16:  ES64L-G16RevA.03 25-Dec-2016
                10-Mar-2024 
 ******************************************
 %nprocshared=24
 Will use up to   24 processors via shared memory.
 %mem=20GB
 %oldchk=mc1_gs_b3lyp.chk
 %chk=mc1_s1_b3lyp.chk
 Copying data from "mc1_gs_b3lyp.chk" to current chk file "mc1_s1_b3lyp.chk"
 IOpt=  2 FromEx=T IUOpen= 4 IOptOp= 5 NList=   0 IFRang= 0 IUIn= 4 IUOut= 2.
 ----------------------------------------------------------------------
 #p CAM-B3LYP/def2TZVP EmpiricalDispersion=GD3BJ SCRF(PCM,Solvent=aceto
 nitrile) TD(Singlets,NStates=5, root=1) opt guess=(read) geom=(allchec
 k) gfinput
 ----------------------------------------------------------------------
 1/18=20,19=15,26=3,29=7,38=1/1,3;
 2/9=110,12=2,40=1/2;
 3/5=44,7=101,11=9,14=-4,24=10,25=1,30=1,70=2201,71=1,72=2,74=-40,116=-2,124=41/1,2,3,8;
 4/5=1/1;
 5/5=2,38=6,53=2/2;
 8/6=1,10=1,107=1,108=5/1;
 9/8=1,15=2,41=5,42=1,48=1,70=2/14;
 10/5=4,28=1/2;
 6/7=2,8=2,9=2,10=2/1;
 7/12=6,13=5,14=1/1,2,3,16;
 1/18=20,19=15,26=3/3(2);
 2/9=110/2;
 99//99;
 2/9=110/2;
 3/5=44,7=101,11=9,14=-2,25=1,30=1,70=2205,71=1,72=2,74=-40,124=41/1,2,3,8;
 4/5=5,16=3,69=1/1;
 5/5=2,38=5,53=2/2;
 8/6=1,10=1,107=1,108=5/1;
 9/8=1,15=2,41=5,42=1,48=1,49=4,70=2/14;
 10/5=4,28=1/2;
 7/12=6,13=5,14=1/1,2,3,16;
 1/18=20,19=15,26=3/3(-8);
 2/9=110/2;
 6/7=2,8=2,9=2,10=2/1;
 99//99;
 Leave Link    1 at Sun Mar 10 13:14:41 2024, MaxMem=  2684354560 cpu:              53.6 elap:               2.3
 (Enter /s/ls4/groups/g0130/bin/g16/l101.exe)
 Structure from the checkpoint file:  "mc1_s1_b3lyp.chk"
 -----
 TITLE
 -----
 Charge =  0 Multiplicity = 1
 Redundant internal coordinates found in file.  (old form).
 C,0,-2.4039868036,2.2970238813,0.5954919054
 C,0,-1.5782174864,1.218214431,0.3126773083
 C,0,-0.2622904708,1.4094635377,-0.0885497214
 C,0,0.1702345284,2.7125908966,-0.190436997
 C,0,-0.6362612617,3.8022777414,0.0817688028
 C,0,-1.9381264532,3.6024798379,0.483901883
 H,0,-3.4249140241,2.1193181377,0.9043297209
 H,0,-1.9626264049,0.2116755711,0.4023262643
 H,0,-2.5898209867,4.4370601203,0.7057568996
 H,0,0.3777185629,0.569595906,-0.315905382
 C,0,0.1635522975,5.0604125252,-0.1275128448
 C,0,1.4788447125,4.4904979413,-0.6205707483
 N,0,1.453200136,3.1854526696,-0.5700338666
 C,0,-0.453963324,5.9929682955,-1.171964984
 H,0,-0.5796577607,5.4782152195,-2.1208931397
 H,0,0.18659771,6.8599851552,-1.3292550821
 H,0,-1.4228882416,6.3408717473,-0.8162031634
 C,0,0.3804270236,5.8044730898,1.1998208258
 H,0,0.8602417267,5.1662438228,1.9408539998
 H,0,-0.5861045648,6.1181907215,1.5907282173
 H,0,0.9899748008,6.6943293102,1.0512875729
 C,0,2.6069785973,5.3013314368,-0.9526233808
 C,0,3.4571167031,4.3694328665,-3.1629538426
 C,0,2.2396610553,3.7897553465,-3.7092676481
 O,0,1.1215071034,3.9305140441,-3.1719396718
 C,0,2.3872896198,3.045357708,-4.9361037042
 C,0,3.5799020587,2.8919091873,-5.5600870023
 C,0,4.7313642679,3.4971720116,-5.019747757
 C,0,4.6513888941,4.2345917928,-3.8566779917
 C,0,2.5486064479,2.2827510775,-0.8524908731
 H,0,3.4842939357,2.8256066937,-0.7867263586
 H,0,2.4386294047,1.865576763,-1.8516085004
 H,0,2.5371689618,1.4815930011,-0.1185441825
 C,0,3.4770081782,5.1842813794,-1.9771486565
 H,0,2.7458029674,6.1443657344,-0.2865811009
 H,0,4.3165862341,5.8704237524,-1.9326685682
 H,0,5.5468447466,4.7037602231,-3.4746755259
 H,0,3.6629095477,2.320468611,-6.4724243143
 H,0,1.4894649093,2.5996313894,-5.3430622472
 N,0,5.9831667143,3.3593779021,-5.6828092693
 O,0,6.9758107701,3.9000552303,-5.2058131942
 O,0,6.032995167,2.7005132902,-6.7164336816
 Recover connectivity data from disk.
 ITRead=  0  0  0  0  0  0  0  0  0  0  0  0  0  0  0  0  0  0  0  0
 ITRead=  0  0  0  0  0  0  0  0  0  0  0  0  0  0  0  0  0  0  0  0
 ITRead=  0  0
 MicOpt= -1 -1 -1 -1 -1 -1 -1 -1 -1 -1 -1 -1 -1 -1 -1 -1 -1 -1 -1 -1
 MicOpt= -1 -1 -1 -1 -1 -1 -1 -1 -1 -1 -1 -1 -1 -1 -1 -1 -1 -1 -1 -1
 MicOpt= -1 -1
 NAtoms=     42 NQM=       42 NQMF=       0 NMMI=      0 NMMIF=      0
                NMic=       0 NMicF=      0.
                    Isotopes and Nuclear Properties:
 (Nuclear quadrupole moments (NQMom) in fm**2, nuclear magnetic moments (NMagM)
  in nuclear magnetons)

  Atom         1           2           3           4           5           6           7           8           9          10
 IAtWgt=          12          12          12          12          12          12           1           1           1           1
 AtmWgt=  12.0000000  12.0000000  12.0000000  12.0000000  12.0000000  12.0000000   1.0078250   1.0078250   1.0078250   1.0078250
 NucSpn=           0           0           0           0           0           0           1           1           1           1
 AtZEff=   3.6000000   3.6000000   3.6000000   3.6000000   3.6000000   3.6000000   1.0000000   1.0000000   1.0000000   1.0000000
 NQMom=    0.0000000   0.0000000   0.0000000   0.0000000   0.0000000   0.0000000   0.0000000   0.0000000   0.0000000   0.0000000
 NMagM=    0.0000000   0.0000000   0.0000000   0.0000000   0.0000000   0.0000000   2.7928460   2.7928460   2.7928460   2.7928460
 AtZNuc=   6.0000000   6.0000000   6.0000000   6.0000000   6.0000000   6.0000000   1.0000000   1.0000000   1.0000000   1.0000000

  Atom        11          12          13          14          15          16          17          18          19          20
 IAtWgt=          12          12          14          12           1           1           1          12           1           1
 AtmWgt=  12.0000000  12.0000000  14.0030740  12.0000000   1.0078250   1.0078250   1.0078250  12.0000000   1.0078250   1.0078250
 NucSpn=           0           0           2           0           1           1           1           0           1           1
 AtZEff=   3.6000000   3.6000000   4.5500000   3.6000000   1.0000000   1.0000000   1.0000000   3.6000000   1.0000000   1.0000000
 NQMom=    0.0000000   0.0000000   2.0440000   0.0000000   0.0000000   0.0000000   0.0000000   0.0000000   0.0000000   0.0000000
 NMagM=    0.0000000   0.0000000   0.4037610   0.0000000   2.7928460   2.7928460   2.7928460   0.0000000   2.7928460   2.7928460
 AtZNuc=   6.0000000   6.0000000   7.0000000   6.0000000   1.0000000   1.0000000   1.0000000   6.0000000   1.0000000   1.0000000

  Atom        21          22          23          24          25          26          27          28          29          30
 IAtWgt=           1          12          12          12          16          12          12          12          12          12
 AtmWgt=   1.0078250  12.0000000  12.0000000  12.0000000  15.9949146  12.0000000  12.0000000  12.0000000  12.0000000  12.0000000
 NucSpn=           1           0           0           0           0           0           0           0           0           0
 AtZEff=   1.0000000   3.6000000   3.6000000   3.6000000   5.6000000   3.6000000   3.6000000   3.6000000   3.6000000   3.6000000
 NQMom=    0.0000000   0.0000000   0.0000000   0.0000000   0.0000000   0.0000000   0.0000000   0.0000000   0.0000000   0.0000000
 NMagM=    2.7928460   0.0000000   0.0000000   0.0000000   0.0000000   0.0000000   0.0000000   0.0000000   0.0000000   0.0000000
 AtZNuc=   1.0000000   6.0000000   6.0000000   6.0000000   8.0000000   6.0000000   6.0000000   6.0000000   6.0000000   6.0000000

  Atom        31          32          33          34          35          36          37          38          39          40
 IAtWgt=           1           1           1          12           1           1           1           1           1          14
 AtmWgt=   1.0078250   1.0078250   1.0078250  12.0000000   1.0078250   1.0078250   1.0078250   1.0078250   1.0078250  14.0030740
 NucSpn=           1           1           1           0           1           1           1           1           1           2
 AtZEff=   1.0000000   1.0000000   1.0000000   3.6000000   1.0000000   1.0000000   1.0000000   1.0000000   1.0000000   4.5500000
 NQMom=    0.0000000   0.0000000   0.0000000   0.0000000   0.0000000   0.0000000   0.0000000   0.0000000   0.0000000   2.0440000
 NMagM=    2.7928460   2.7928460   2.7928460   0.0000000   2.7928460   2.7928460   2.7928460   2.7928460   2.7928460   0.4037610
 AtZNuc=   1.0000000   1.0000000   1.0000000   6.0000000   1.0000000   1.0000000   1.0000000   1.0000000   1.0000000   7.0000000

  Atom        41          42
 IAtWgt=          16          16
 AtmWgt=  15.9949146  15.9949146
 NucSpn=           0           0
 AtZEff=   5.6000000   5.6000000
 NQMom=    0.0000000   0.0000000
 NMagM=    0.0000000   0.0000000
 AtZNuc=   8.0000000   8.0000000
 Leave Link  101 at Sun Mar 10 13:14:43 2024, MaxMem=  2684354560 cpu:               9.8 elap:               0.5
 (Enter /s/ls4/groups/g0130/bin/g16/l103.exe)

 GradGradGradGradGradGradGradGradGradGradGradGradGradGradGradGradGradGrad
 Berny optimization.
 Initialization pass.
                           ----------------------------
                           !    Initial Parameters    !
                           ! (Angstroms and Degrees)  !
 --------------------------                            --------------------------
 ! Name  Definition              Value          Derivative Info.                !
 --------------------------------------------------------------------------------
 ! R1    R(1,2)                  1.3877         estimate D2E/DX2                !
 ! R2    R(1,6)                  1.3906         estimate D2E/DX2                !
 ! R3    R(1,7)                  1.0813         estimate D2E/DX2                !
 ! R4    R(2,3)                  1.389          estimate D2E/DX2                !
 ! R5    R(2,8)                  1.0812         estimate D2E/DX2                !
 ! R6    R(3,4)                  1.3768         estimate D2E/DX2                !
 ! R7    R(3,10)                 1.0801         estimate D2E/DX2                !
 ! R8    R(4,5)                  1.3827         estimate D2E/DX2                !
 ! R9    R(4,13)                 1.419          estimate D2E/DX2                !
 ! R10   R(5,6)                  1.3771         estimate D2E/DX2                !
 ! R11   R(5,11)                 1.5055         estimate D2E/DX2                !
 ! R12   R(6,9)                  1.0819         estimate D2E/DX2                !
 ! R13   R(11,12)                1.5159         estimate D2E/DX2                !
 ! R14   R(11,14)                1.5303         estimate D2E/DX2                !
 ! R15   R(11,18)                1.537          estimate D2E/DX2                !
 ! R16   R(12,13)                1.3063         estimate D2E/DX2                !
 ! R17   R(12,22)                1.4284         estimate D2E/DX2                !
 ! R18   R(13,30)                1.4473         estimate D2E/DX2                !
 ! R19   R(14,15)                1.0868         estimate D2E/DX2                !
 ! R20   R(14,16)                1.0894         estimate D2E/DX2                !
 ! R21   R(14,17)                1.0892         estimate D2E/DX2                !
 ! R22   R(18,19)                1.0894         estimate D2E/DX2                !
 ! R23   R(18,20)                1.0888         estimate D2E/DX2                !
 ! R24   R(18,21)                1.0888         estimate D2E/DX2                !
 ! R25   R(22,34)                1.3492         estimate D2E/DX2                !
 ! R26   R(22,35)                1.0833         estimate D2E/DX2                !
 ! R27   R(23,24)                1.4549         estimate D2E/DX2                !
 ! R28   R(23,29)                1.3877         estimate D2E/DX2                !
 ! R29   R(23,34)                1.4389         estimate D2E/DX2                !
 ! R30   R(24,25)                1.2485         estimate D2E/DX2                !
 ! R31   R(24,26)                1.4426         estimate D2E/DX2                !
 ! R32   R(26,27)                1.3547         estimate D2E/DX2                !
 ! R33   R(26,39)                1.0818         estimate D2E/DX2                !
 ! R34   R(27,28)                1.4086         estimate D2E/DX2                !
 ! R35   R(27,38)                1.0797         estimate D2E/DX2                !
 ! R36   R(28,29)                1.3795         estimate D2E/DX2                !
 ! R37   R(28,40)                1.4233         estimate D2E/DX2                !
 ! R38   R(29,37)                1.0807         estimate D2E/DX2                !
 ! R39   R(30,31)                1.0838         estimate D2E/DX2                !
 ! R40   R(30,32)                1.0883         estimate D2E/DX2                !
 ! R41   R(30,33)                1.0866         estimate D2E/DX2                !
 ! R42   R(34,36)                1.0852         estimate D2E/DX2                !
 ! R43   R(40,41)                1.2269         estimate D2E/DX2                !
 ! R44   R(40,42)                1.2268         estimate D2E/DX2                !
 ! A1    A(2,1,6)              120.9383         estimate D2E/DX2                !
 ! A2    A(2,1,7)              119.4903         estimate D2E/DX2                !
 ! A3    A(6,1,7)              119.5712         estimate D2E/DX2                !
 ! A4    A(1,2,3)              121.0377         estimate D2E/DX2                !
 ! A5    A(1,2,8)              119.6877         estimate D2E/DX2                !
 ! A6    A(3,2,8)              119.2744         estimate D2E/DX2                !
 ! A7    A(2,3,4)              116.7008         estimate D2E/DX2                !
 ! A8    A(2,3,10)             121.0049         estimate D2E/DX2                !
 ! A9    A(4,3,10)             122.2917         estimate D2E/DX2                !
 ! A10   A(3,4,5)              123.2363         estimate D2E/DX2                !
 ! A11   A(3,4,13)             128.2587         estimate D2E/DX2                !
 ! A12   A(5,4,13)             108.5049         estimate D2E/DX2                !
 ! A13   A(4,5,6)              119.6391         estimate D2E/DX2                !
 ! A14   A(4,5,11)             108.7452         estimate D2E/DX2                !
 ! A15   A(6,5,11)             131.6119         estimate D2E/DX2                !
 ! A16   A(1,6,5)              118.4466         estimate D2E/DX2                !
 ! A17   A(1,6,9)              120.394          estimate D2E/DX2                !
 ! A18   A(5,6,9)              121.159          estimate D2E/DX2                !
 ! A19   A(5,11,12)            101.0691         estimate D2E/DX2                !
 ! A20   A(5,11,14)            112.9403         estimate D2E/DX2                !
 ! A21   A(5,11,18)            111.0679         estimate D2E/DX2                !
 ! A22   A(12,11,14)           110.9307         estimate D2E/DX2                !
 ! A23   A(12,11,18)           109.9046         estimate D2E/DX2                !
 ! A24   A(14,11,18)           110.5687         estimate D2E/DX2                !
 ! A25   A(11,12,13)           110.2423         estimate D2E/DX2                !
 ! A26   A(11,12,22)           123.1933         estimate D2E/DX2                !
 ! A27   A(13,12,22)           126.271          estimate D2E/DX2                !
 ! A28   A(4,13,12)            111.1622         estimate D2E/DX2                !
 ! A29   A(4,13,30)            121.9153         estimate D2E/DX2                !
 ! A30   A(12,13,30)           126.9225         estimate D2E/DX2                !
 ! A31   A(11,14,15)           110.729          estimate D2E/DX2                !
 ! A32   A(11,14,16)           110.2592         estimate D2E/DX2                !
 ! A33   A(11,14,17)           109.3097         estimate D2E/DX2                !
 ! A34   A(15,14,16)           108.5954         estimate D2E/DX2                !
 ! A35   A(15,14,17)           109.4856         estimate D2E/DX2                !
 ! A36   A(16,14,17)           108.4217         estimate D2E/DX2                !
 ! A37   A(11,18,19)           111.4675         estimate D2E/DX2                !
 ! A38   A(11,18,20)           108.922          estimate D2E/DX2                !
 ! A39   A(11,18,21)           110.9054         estimate D2E/DX2                !
 ! A40   A(19,18,20)           108.3964         estimate D2E/DX2                !
 ! A41   A(19,18,21)           108.9685         estimate D2E/DX2                !
 ! A42   A(20,18,21)           108.0878         estimate D2E/DX2                !
 ! A43   A(12,22,34)           129.5363         estimate D2E/DX2                !
 ! A44   A(12,22,35)           113.5795         estimate D2E/DX2                !
 ! A45   A(34,22,35)           116.8557         estimate D2E/DX2                !
 ! A46   A(24,23,29)           119.5862         estimate D2E/DX2                !
 ! A47   A(24,23,34)           123.1373         estimate D2E/DX2                !
 ! A48   A(29,23,34)           117.0712         estimate D2E/DX2                !
 ! A49   A(23,24,25)           122.8816         estimate D2E/DX2                !
 ! A50   A(23,24,26)           116.0598         estimate D2E/DX2                !
 ! A51   A(25,24,26)           121.0532         estimate D2E/DX2                !
 ! A52   A(24,26,27)           122.7013         estimate D2E/DX2                !
 ! A53   A(24,26,39)           116.589          estimate D2E/DX2                !
 ! A54   A(27,26,39)           120.7085         estimate D2E/DX2                !
 ! A55   A(26,27,28)           119.6223         estimate D2E/DX2                !
 ! A56   A(26,27,38)           121.1198         estimate D2E/DX2                !
 ! A57   A(28,27,38)           119.2551         estimate D2E/DX2                !
 ! A58   A(27,28,29)           120.3799         estimate D2E/DX2                !
 ! A59   A(27,28,40)           119.9116         estimate D2E/DX2                !
 ! A60   A(29,28,40)           119.7056         estimate D2E/DX2                !
 ! A61   A(23,29,28)           121.5557         estimate D2E/DX2                !
 ! A62   A(23,29,37)           119.6175         estimate D2E/DX2                !
 ! A63   A(28,29,37)           118.8207         estimate D2E/DX2                !
 ! A64   A(13,30,31)           109.2203         estimate D2E/DX2                !
 ! A65   A(13,30,32)           109.9856         estimate D2E/DX2                !
 ! A66   A(13,30,33)           108.6686         estimate D2E/DX2                !
 ! A67   A(31,30,32)           109.5707         estimate D2E/DX2                !
 ! A68   A(31,30,33)           109.72           estimate D2E/DX2                !
 ! A69   A(32,30,33)           109.6588         estimate D2E/DX2                !
 ! A70   A(22,34,23)           131.7591         estimate D2E/DX2                !
 ! A71   A(22,34,36)           114.3885         estimate D2E/DX2                !
 ! A72   A(23,34,36)           113.7359         estimate D2E/DX2                !
 ! A73   A(28,40,41)           119.1979         estimate D2E/DX2                !
 ! A74   A(28,40,42)           118.7018         estimate D2E/DX2                !
 ! A75   A(41,40,42)           122.1003         estimate D2E/DX2                !
 ! D1    D(6,1,2,3)              0.0731         estimate D2E/DX2                !
 ! D2    D(6,1,2,8)           -179.7553         estimate D2E/DX2                !
 ! D3    D(7,1,2,3)            179.9021         estimate D2E/DX2                !
 ! D4    D(7,1,2,8)              0.0737         estimate D2E/DX2                !
 ! D5    D(2,1,6,5)              0.1756         estimate D2E/DX2                !
 ! D6    D(2,1,6,9)            179.9461         estimate D2E/DX2                !
 ! D7    D(7,1,6,5)           -179.6532         estimate D2E/DX2                !
 ! D8    D(7,1,6,9)              0.1173         estimate D2E/DX2                !
 ! D9    D(1,2,3,4)             -0.0943         estimate D2E/DX2                !
 ! D10   D(1,2,3,10)          -179.5232         estimate D2E/DX2                !
 ! D11   D(8,2,3,4)            179.7347         estimate D2E/DX2                !
 ! D12   D(8,2,3,10)             0.3058         estimate D2E/DX2                !
 ! D13   D(2,3,4,5)             -0.1362         estimate D2E/DX2                !
 ! D14   D(2,3,4,13)           179.7713         estimate D2E/DX2                !
 ! D15   D(10,3,4,5)           179.2847         estimate D2E/DX2                !
 ! D16   D(10,3,4,13)           -0.8077         estimate D2E/DX2                !
 ! D17   D(3,4,5,6)              0.3887         estimate D2E/DX2                !
 ! D18   D(3,4,5,11)           179.7683         estimate D2E/DX2                !
 ! D19   D(13,4,5,6)          -179.5347         estimate D2E/DX2                !
 ! D20   D(13,4,5,11)           -0.1551         estimate D2E/DX2                !
 ! D21   D(3,4,13,12)          176.7368         estimate D2E/DX2                !
 ! D22   D(3,4,13,30)           -3.1887         estimate D2E/DX2                !
 ! D23   D(5,4,13,12)           -3.3448         estimate D2E/DX2                !
 ! D24   D(5,4,13,30)          176.7298         estimate D2E/DX2                !
 ! D25   D(4,5,6,1)             -0.3951         estimate D2E/DX2                !
 ! D26   D(4,5,6,9)            179.8363         estimate D2E/DX2                !
 ! D27   D(11,5,6,1)          -179.6093         estimate D2E/DX2                !
 ! D28   D(11,5,6,9)             0.622          estimate D2E/DX2                !
 ! D29   D(4,5,11,12)            2.9658         estimate D2E/DX2                !
 ! D30   D(4,5,11,14)          121.5254         estimate D2E/DX2                !
 ! D31   D(4,5,11,18)         -113.5934         estimate D2E/DX2                !
 ! D32   D(6,5,11,12)         -177.7554         estimate D2E/DX2                !
 ! D33   D(6,5,11,14)          -59.1958         estimate D2E/DX2                !
 ! D34   D(6,5,11,18)           65.6854         estimate D2E/DX2                !
 ! D35   D(5,11,12,13)          -5.0813         estimate D2E/DX2                !
 ! D36   D(5,11,12,22)        -179.2087         estimate D2E/DX2                !
 ! D37   D(14,11,12,13)       -125.0843         estimate D2E/DX2                !
 ! D38   D(14,11,12,22)         60.7883         estimate D2E/DX2                !
 ! D39   D(18,11,12,13)        112.3314         estimate D2E/DX2                !
 ! D40   D(18,11,12,22)        -61.7961         estimate D2E/DX2                !
 ! D41   D(5,11,14,15)         -56.6229         estimate D2E/DX2                !
 ! D42   D(5,11,14,16)        -176.8297         estimate D2E/DX2                !
 ! D43   D(5,11,14,17)          64.0756         estimate D2E/DX2                !
 ! D44   D(12,11,14,15)         56.0266         estimate D2E/DX2                !
 ! D45   D(12,11,14,16)        -64.1802         estimate D2E/DX2                !
 ! D46   D(12,11,14,17)        176.7251         estimate D2E/DX2                !
 ! D47   D(18,11,14,15)        178.225          estimate D2E/DX2                !
 ! D48   D(18,11,14,16)         58.0182         estimate D2E/DX2                !
 ! D49   D(18,11,14,17)        -61.0765         estimate D2E/DX2                !
 ! D50   D(5,11,18,19)          56.3071         estimate D2E/DX2                !
 ! D51   D(5,11,18,20)         -63.2504         estimate D2E/DX2                !
 ! D52   D(5,11,18,21)         177.9151         estimate D2E/DX2                !
 ! D53   D(12,11,18,19)        -54.6889         estimate D2E/DX2                !
 ! D54   D(12,11,18,20)       -174.2464         estimate D2E/DX2                !
 ! D55   D(12,11,18,21)         66.9191         estimate D2E/DX2                !
 ! D56   D(14,11,18,19)       -177.4869         estimate D2E/DX2                !
 ! D57   D(14,11,18,20)         62.9555         estimate D2E/DX2                !
 ! D58   D(14,11,18,21)        -55.8789         estimate D2E/DX2                !
 ! D59   D(11,12,13,4)           5.3868         estimate D2E/DX2                !
 ! D60   D(11,12,13,30)       -174.6923         estimate D2E/DX2                !
 ! D61   D(22,12,13,4)         179.2906         estimate D2E/DX2                !
 ! D62   D(22,12,13,30)         -0.7886         estimate D2E/DX2                !
 ! D63   D(11,12,22,34)       -139.4841         estimate D2E/DX2                !
 ! D64   D(11,12,22,35)         38.4848         estimate D2E/DX2                !
 ! D65   D(13,12,22,34)         47.3543         estimate D2E/DX2                !
 ! D66   D(13,12,22,35)       -134.6768         estimate D2E/DX2                !
 ! D67   D(4,13,30,31)        -160.8631         estimate D2E/DX2                !
 ! D68   D(4,13,30,32)          78.854          estimate D2E/DX2                !
 ! D69   D(4,13,30,33)         -41.1947         estimate D2E/DX2                !
 ! D70   D(12,13,30,31)         19.2239         estimate D2E/DX2                !
 ! D71   D(12,13,30,32)       -101.059          estimate D2E/DX2                !
 ! D72   D(12,13,30,33)        138.8923         estimate D2E/DX2                !
 ! D73   D(12,22,34,23)         10.9854         estimate D2E/DX2                !
 ! D74   D(12,22,34,36)       -173.2558         estimate D2E/DX2                !
 ! D75   D(35,22,34,23)       -166.928          estimate D2E/DX2                !
 ! D76   D(35,22,34,36)          8.8308         estimate D2E/DX2                !
 ! D77   D(29,23,24,25)       -176.3309         estimate D2E/DX2                !
 ! D78   D(29,23,24,26)          2.8251         estimate D2E/DX2                !
 ! D79   D(34,23,24,25)         -1.6941         estimate D2E/DX2                !
 ! D80   D(34,23,24,26)        177.462          estimate D2E/DX2                !
 ! D81   D(24,23,29,28)         -3.7252         estimate D2E/DX2                !
 ! D82   D(24,23,29,37)        177.1832         estimate D2E/DX2                !
 ! D83   D(34,23,29,28)       -178.6826         estimate D2E/DX2                !
 ! D84   D(34,23,29,37)          2.2258         estimate D2E/DX2                !
 ! D85   D(24,23,34,22)         20.7864         estimate D2E/DX2                !
 ! D86   D(24,23,34,36)       -154.994          estimate D2E/DX2                !
 ! D87   D(29,23,34,22)       -164.4509         estimate D2E/DX2                !
 ! D88   D(29,23,34,36)         19.7687         estimate D2E/DX2                !
 ! D89   D(23,24,26,27)         -0.3781         estimate D2E/DX2                !
 ! D90   D(23,24,26,39)        179.225          estimate D2E/DX2                !
 ! D91   D(25,24,26,27)        178.7946         estimate D2E/DX2                !
 ! D92   D(25,24,26,39)         -1.6022         estimate D2E/DX2                !
 ! D93   D(24,26,27,28)         -1.2604         estimate D2E/DX2                !
 ! D94   D(24,26,27,38)        179.3554         estimate D2E/DX2                !
 ! D95   D(39,26,27,28)        179.1524         estimate D2E/DX2                !
 ! D96   D(39,26,27,38)         -0.2319         estimate D2E/DX2                !
 ! D97   D(26,27,28,29)          0.4774         estimate D2E/DX2                !
 ! D98   D(26,27,28,40)       -178.908          estimate D2E/DX2                !
 ! D99   D(38,27,28,29)        179.8732         estimate D2E/DX2                !
 ! D100  D(38,27,28,40)          0.4878         estimate D2E/DX2                !
 ! D101  D(27,28,29,23)          2.0631         estimate D2E/DX2                !
 ! D102  D(27,28,29,37)       -178.8383         estimate D2E/DX2                !
 ! D103  D(40,28,29,23)       -178.5502         estimate D2E/DX2                !
 ! D104  D(40,28,29,37)          0.5484         estimate D2E/DX2                !
 ! D105  D(27,28,40,41)        179.4778         estimate D2E/DX2                !
 ! D106  D(27,28,40,42)         -0.5464         estimate D2E/DX2                !
 ! D107  D(29,28,40,41)          0.0883         estimate D2E/DX2                !
 ! D108  D(29,28,40,42)       -179.936          estimate D2E/DX2                !
 --------------------------------------------------------------------------------
 Trust Radius=3.00D-01 FncErr=1.00D-07 GrdErr=1.00D-06 EigMax=2.50D+02 EigMin=1.00D-04
 Number of steps in this run=    237 maximum allowed number of steps=    252.
 GradGradGradGradGradGradGradGradGradGradGradGradGradGradGradGradGradGrad

 Leave Link  103 at Sun Mar 10 13:14:43 2024, MaxMem=  2684354560 cpu:               0.4 elap:               0.0
 (Enter /s/ls4/groups/g0130/bin/g16/l202.exe)
                          Input orientation:                          
 ---------------------------------------------------------------------
 Center     Atomic      Atomic             Coordinates (Angstroms)
 Number     Number       Type             X           Y           Z
 ---------------------------------------------------------------------
      1          6           0       -2.403987    2.297024    0.595492
      2          6           0       -1.578217    1.218214    0.312677
      3          6           0       -0.262290    1.409464   -0.088550
      4          6           0        0.170235    2.712591   -0.190437
      5          6           0       -0.636261    3.802278    0.081769
      6          6           0       -1.938126    3.602480    0.483902
      7          1           0       -3.424914    2.119318    0.904330
      8          1           0       -1.962626    0.211676    0.402326
      9          1           0       -2.589821    4.437060    0.705757
     10          1           0        0.377719    0.569596   -0.315905
     11          6           0        0.163552    5.060413   -0.127513
     12          6           0        1.478845    4.490498   -0.620571
     13          7           0        1.453200    3.185453   -0.570034
     14          6           0       -0.453963    5.992968   -1.171965
     15          1           0       -0.579658    5.478215   -2.120893
     16          1           0        0.186598    6.859985   -1.329255
     17          1           0       -1.422888    6.340872   -0.816203
     18          6           0        0.380427    5.804473    1.199821
     19          1           0        0.860242    5.166244    1.940854
     20          1           0       -0.586105    6.118191    1.590728
     21          1           0        0.989975    6.694329    1.051288
     22          6           0        2.606979    5.301331   -0.952623
     23          6           0        3.457117    4.369433   -3.162954
     24          6           0        2.239661    3.789755   -3.709268
     25          8           0        1.121507    3.930514   -3.171940
     26          6           0        2.387290    3.045358   -4.936104
     27          6           0        3.579902    2.891909   -5.560087
     28          6           0        4.731364    3.497172   -5.019748
     29          6           0        4.651389    4.234592   -3.856678
     30          6           0        2.548606    2.282751   -0.852491
     31          1           0        3.484294    2.825607   -0.786726
     32          1           0        2.438629    1.865577   -1.851609
     33          1           0        2.537169    1.481593   -0.118544
     34          6           0        3.477008    5.184281   -1.977149
     35          1           0        2.745803    6.144366   -0.286581
     36          1           0        4.316586    5.870424   -1.932669
     37          1           0        5.546845    4.703760   -3.474676
     38          1           0        3.662910    2.320469   -6.472424
     39          1           0        1.489465    2.599631   -5.343062
     40          7           0        5.983167    3.359378   -5.682809
     41          8           0        6.975811    3.900055   -5.205813
     42          8           0        6.032995    2.700513   -6.716434
 ---------------------------------------------------------------------
                    Distance matrix (angstroms):
                    1          2          3          4          5
     1  C    0.000000
     2  C    1.387699   0.000000
     3  C    2.417135   1.388965   0.000000
     4  C    2.723416   2.354436   1.376808   0.000000
     5  C    2.377931   2.760069   2.427843   1.382732   0.000000
     6  C    1.390573   2.417349   2.818767   2.385754   1.377129
     7  H    1.081320   2.138300   3.389969   3.804679   3.359396
     8  H    2.140278   1.081170   2.137007   3.339916   3.841149
     9  H    2.150918   3.396884   3.900598   3.375628   2.146790
    10  H    3.398902   2.154416   1.080130   2.156669   3.411236
    11  C    3.840743   4.241464   3.675907   2.348674   1.505458
    12  C    4.622393   4.574322   3.578739   2.249095   2.332510
    13  N    4.126215   3.720040   2.515725   1.419046   2.274020
    14  C    4.537235   5.125074   4.713708   3.480502   2.530653
    15  H    4.563650   5.006695   4.559154   3.455094   2.768337
    16  H    5.588953   6.135152   5.607944   4.300936   3.466650
    17  H    4.394103   5.247868   5.118130   4.011738   2.805280
    18  C    4.518891   5.065282   4.624834   3.396577   2.508482
    19  H    4.549463   4.917721   4.414970   3.322488   2.748840
    20  H    4.347011   5.160181   5.009685   3.916977   2.764584
    21  H    5.573421   6.093356   5.549523   4.250658   3.456671
    22  C    6.044195   5.982365   4.911819   3.635963   3.719642
    23  C    7.264525   6.882207   5.661040   4.731234   5.254106
    24  C    6.505587   6.112697   5.003514   4.221964   4.758471
    25  O    5.412110   5.175677   4.216383   3.358216   3.700380
    26  C    7.356282   6.827401   5.761528   5.248564   5.907100
    27  C    8.605345   7.993548   6.848197   6.363264   7.101784
    28  C    9.158849   8.569669   7.322010   6.688925   7.411475
    29  C    8.564713   8.080226   6.806202   5.986531   6.607382
    30  C    5.159946   4.418318   3.040950   2.505939   3.650368
    31  H    6.071390   5.424152   4.065687   3.369172   4.322863
    32  H    5.442920   4.608500   3.257512   2.936416   4.116274
    33  H    5.058636   4.146291   2.800549   2.668877   3.936542
    34  C    7.038525   6.821165   5.639008   4.498482   4.802922
    35  H    6.488484   6.582038   5.613122   4.291838   4.130305
    36  H    8.020404   7.837942   6.653349   5.495408   5.732877
    37  H    9.250641   8.789743   7.487609   6.607489   7.189699
    38  H    9.314678   8.644188   7.549237   7.198326   7.977222
    39  H    7.107529   6.580758   5.665249   5.320026   5.949274
    40  N   10.530432   9.884583   8.608347   8.023383   8.788819
    41  O   11.144750  10.526985   9.207581   8.536975   9.268858
    42  O   11.171827  10.465953   9.231808   8.772727   9.586888
                    6          7          8          9         10
     6  C    0.000000
     7  H    2.141744   0.000000
     8  H    3.391874   2.455482   0.000000
     9  H    1.081873   2.471586   4.282443   0.000000
    10  H    3.898874   4.283763   2.474102   4.980699   0.000000
    11  C    2.629914   4.753086   5.320866   2.943462   4.499866
    12  C    3.699206   5.656383   5.585549   4.279724   4.083965
    13  N    3.575722   5.206380   4.632138   4.420428   2.839709
    14  C    3.264823   5.304971   6.178819   3.241694   5.553152
    15  H    3.485510   5.341315   6.001306   3.621424   5.316869
    16  H    4.291076   6.364420   7.198441   4.209553   6.374355
    17  H    3.074823   4.978941   6.272414   2.702331   6.066309
    18  C    3.276737   5.305497   6.115986   3.307006   5.449897
    19  H    3.521212   5.359170   5.906217   3.736323   5.143439
    20  H    3.062977   4.951865   6.180132   2.761205   5.945680
    21  H    4.295956   6.359526   7.152888   4.246127   6.305270
    22  C    5.060403   7.068042   6.972932   5.523035   5.269187
    23  C    6.557166   8.304707   7.705309   7.178924   5.659252
    24  C    5.922132   7.494201   6.882375   6.575359   5.034994
    25  O    4.778508   6.369172   6.009743   5.391389   4.472798
    26  C    6.956728   8.291557   7.446500   7.651082   5.613734
    27  C    8.214825   9.563108   8.570510   8.928257   6.568756
    28  C    8.647737  10.174382   9.219701   9.341549   7.046351
    29  C    7.915928   9.610840   8.835619   8.561070   6.650829
    30  C    4.863990   6.228650   5.120072   5.785553   2.817016
    31  H    5.623226   7.148123   6.157550   6.459037   3.868083
    32  H    5.256180   6.483882   5.214083   6.199835   2.878420
    33  H    4.988925   6.082713   4.704482   5.974971   2.352428
    34  C    6.154880   8.082911   7.744568   6.675533   5.801780
    35  H    5.384610   7.463044   7.605308   5.689333   6.056958
    36  H    7.078475   9.058155   8.769387   7.530888   6.799072
    37  H    8.538615  10.312492   9.570900   9.151638   7.334099
    38  H    9.022507  10.232019   9.129943   9.752071   7.194495
    39  H    6.834296   7.963148   7.115389   7.523625   5.534377
    40  N   10.041629  11.551629  10.491546  10.745757   8.246671
    41  O   10.579210  12.193439  11.178150  11.257724   8.862166
    42  O   10.779478  12.160011  10.990952  11.509017   8.802825
                   11         12         13         14         15
    11  C    0.000000
    12  C    1.515884   0.000000
    13  N    2.318295   1.306275   0.000000
    14  C    1.530316   2.509422   3.446990   0.000000
    15  H    2.168060   2.732029   3.434303   1.086846   0.000000
    16  H    2.164065   2.790449   3.960163   1.089393   1.767237
    17  H    2.151898   3.447058   4.276582   1.089229   1.776916
    18  C    1.537035   2.499375   3.338038   2.521330   3.472081
    19  H    2.185113   2.720331   3.252644   3.478541   4.320697
    20  H    2.152494   3.435585   4.174759   2.768685   3.766397
    21  H    2.177666   2.809088   3.893003   2.742210   3.742380
    22  C    2.590209   1.428424   2.440189   3.145765   3.398646
    23  C    4.531989   3.223651   3.484354   4.679364   4.314028
    24  C    4.330562   3.257289   3.292186   4.306700   3.649985
    25  O    3.385688   2.636429   2.726729   3.276541   2.528644
    26  C    5.668157   4.640854   4.467070   5.561463   4.758885
    27  C    6.773973   5.600781   5.432279   6.718947   5.984895
    28  C    6.873324   5.560426   5.535656   6.922576   6.366698
    29  C    5.893160   4.539043   4.704374   6.030273   5.650079
    30  C    3.732222   2.464208   1.447262   4.783639   4.648212
    31  H    4.056630   2.611761   2.074075   5.068576   5.033094
    32  H    4.284327   3.053989   2.087002   5.085702   4.715265
    33  H    4.294425   3.228868   2.069292   5.514442   5.449495
    34  C    3.796773   2.512826   3.173498   4.093267   4.069840
    35  H    2.805045   2.109979   3.241348   3.323452   3.855794
    36  H    4.600260   3.417393   4.155096   4.832373   4.915533
    37  H    6.349058   4.973934   5.244056   6.555473   6.321910
    38  H    7.746657   6.612364   6.361543   7.650540   6.848837
    39  H    5.917385   5.086985   4.808981   5.717491   4.790604
    40  N    8.223305   6.869833   6.833105   8.289762   7.761919
    41  O    8.575688   7.182597   7.245711   8.709406   8.312185
    42  O    9.134186   7.816897   7.680359   9.146695   8.518321
                   16         17         18         19         20
    16  H    0.000000
    17  H    1.767242   0.000000
    18  C    2.747344   2.757539   0.000000
    19  H    3.743817   3.767466   1.089353   0.000000
    20  H    3.110246   2.557951   1.088766   1.766553   0.000000
    21  H    2.517904   3.071541   1.088786   1.772908   1.762657
    22  C    2.903360   4.164022   3.137467   3.382536   4.163133
    23  C    4.501288   5.762661   5.528034   5.781654   6.480994
    24  C    4.393841   5.319049   5.622721   5.976738   6.441779
    25  O    3.584877   4.222945   4.813856   5.266493   5.512247
    26  C    5.692432   6.507799   7.020668   7.356805   7.802750
    27  C    6.720125   7.708936   8.025959   8.296582   8.882492
    28  C    6.751530   7.976919   7.933305   8.137651   8.879392
    29  C    5.763238   7.111803   6.802487   6.989431   7.788037
    30  C    5.172761   5.678242   4.616872   4.355213   5.523254
    31  H    5.238831   6.036422   4.738566   4.450160   5.749917
    32  H    5.503509   6.000971   5.390948   5.269581   6.251674
    33  H    5.993172   6.307248   5.007686   4.542010   5.845895
    34  C    3.748940   5.166670   4.479574   4.711532   5.487332
    35  H    2.854612   4.206792   2.814235   3.077910   3.824472
    36  H    4.289539   5.865951   5.030923   5.238928   6.042524
    37  H    6.163147   7.637067   7.053677   7.176775   8.079109
    38  H    7.690523   8.603593   9.043026   9.313251   9.873765
    39  H    5.996559   6.555237   7.369552   7.748475   8.047714
    40  N    8.050335   9.350017   9.205421   9.361056  10.181882
    41  O    8.359564   9.785929   9.389251   9.490957  10.406520
    42  O    8.972361  10.181116  10.210445  10.381996  11.158044
                   21         22         23         24         25
    21  H    0.000000
    22  C    2.927593   0.000000
    23  C    5.408490   2.544942   0.000000
    24  C    5.714994   3.165260   1.454882   0.000000
    25  O    5.048923   3.001855   2.376511   1.248520   0.000000
    26  C    7.149569   4.583208   2.458000   1.442584   2.344778
    27  C    8.054588   5.289671   2.818581   2.455179   3.581292
    28  C    7.815195   4.930467   2.415001   2.830468   4.078388
    29  C    6.598817   3.708245   1.387704   2.456835   3.608517
    30  C    5.051309   3.020805   3.243127   3.244639   3.183014
    31  H    4.956505   2.631809   2.833830   3.319630   3.534519
    32  H    5.817410   3.555408   3.004370   2.681967   2.782454
    33  H    5.561918   3.910366   4.295853   4.278951   4.162275
    34  C    4.199644   1.349187   1.438926   2.544792   2.923670
    35  H    2.274925   1.083324   3.453965   4.185111   3.983060
    36  H    4.544134   2.051125   2.122561   3.434982   3.937966
    37  H    6.723970   3.919267   2.139137   3.439172   4.502574
    38  H    9.103927   6.361504   3.897846   3.437946   4.465890
    39  H    7.609451   5.274843   3.428808   2.156032   2.573017
    40  N    9.022302   6.127356   3.708209   4.253696   5.501490
    41  O    9.098874   6.256188   4.095705   4.968192   6.197616
    42  O   10.085639   7.191895   4.695494   4.961742   6.180538
                   26         27         28         29         30
    26  C    0.000000
    27  C    1.354705   0.000000
    28  C    2.388686   1.408607   0.000000
    29  C    2.775893   2.419191   1.379462   0.000000
    30  C    4.157341   4.857582   4.858527   4.154096   0.000000
    31  H    4.297562   4.774778   4.463704   3.573787   1.083757
    32  H    3.302821   4.013561   4.237433   3.811672   1.088286
    33  H    5.067219   5.717226   5.735752   5.101232   1.086583
    34  C    3.810236   4.254763   3.698264   2.411164   3.247409
    35  H    5.599147   6.251725   5.775202   4.474828   3.907839
    36  H    4.552341   4.751044   3.915919   2.547519   4.142938
    37  H    3.856016   3.391255   2.123231   1.080688   4.661177
    38  H    2.124371   1.079719   2.153252   3.388671   5.729463
    39  H    1.081839   2.121899   3.379352   3.857486   4.624654
    40  N    3.685988   2.451381   1.423252   2.423713   6.023895
    41  O    4.675230   3.560065   2.287898   2.708324   6.416169
    42  O    4.071813   2.718720   2.282028   3.527100   6.833836
                   31         32         33         34         35
    31  H    0.000000
    32  H    1.774555   0.000000
    33  H    1.774792   1.777826   0.000000
    34  C    2.642064   3.479625   4.248248   0.000000
    35  H    3.436521   4.566366   4.670462   2.077123   0.000000
    36  H    3.358095   4.424036   5.071411   1.085201   2.291726
    37  H    3.873841   4.511168   5.541131   2.599560   4.481643
    38  H    5.710887   4.801846   6.507134   5.333243   7.329934
    39  H    4.979016   3.691883   5.444565   4.686162   6.301708
    40  N    5.522762   5.428930   6.808966   4.831462   6.881567
    41  O    5.733538   5.997984   7.171527   4.931038   6.865038
    42  O    6.455459   6.105990   7.565627   5.929839   8.000547
                   36         37         38         39         40
    36  H    0.000000
    37  H    2.291817   0.000000
    38  H    5.799901   4.267996   0.000000
    39  H    5.506495   4.937667   2.465208   0.000000
    40  N    4.811070   2.621754   2.662033   4.570120   0.000000
    41  O    4.654815   2.384266   3.882617   5.640029   1.226866
    42  O    5.989892   3.841658   2.412733   4.747630   1.226770
                   41         42
    41  O    0.000000
    42  O    2.147039   0.000000
 Stoichiometry    C19H18N2O3
 Framework group  C1[X(C19H18N2O3)]
 Deg. of freedom   120
 Full point group                 C1      NOp   1
 RotChk:  IX=0 Diff= 5.30D-15
 Largest Abelian subgroup         C1      NOp   1
 Largest concise Abelian subgroup C1      NOp   1
                         Standard orientation:                         
 ---------------------------------------------------------------------
 Center     Atomic      Atomic             Coordinates (Angstroms)
 Number     Number       Type             X           Y           Z
 ---------------------------------------------------------------------
      1          6           0        5.034924   -1.670359    0.302449
      2          6           0        4.231876   -2.518402   -0.446982
      3          6           0        2.991739   -2.102803   -0.914485
      4          6           0        2.608387   -0.819645   -0.594881
      5          6           0        3.390097    0.040517    0.154118
      6          6           0        4.620460   -0.378846    0.608896
      7          1           0        5.995305   -2.020409    0.655130
      8          1           0        4.572458   -3.519980   -0.670082
      9          1           0        5.253262    0.274612    1.194561
     10          1           0        2.363809   -2.765884   -1.491293
     11          6           0        2.663400    1.350764    0.300982
     12          6           0        1.359187    1.041158   -0.406886
     13          7           0        1.408063   -0.148336   -0.944538
     14          6           0        2.415034    1.734661    1.761395
     15          1           0        1.864295    0.952023    2.276564
     16          1           0        1.839559    2.658032    1.816078
     17          1           0        3.370525    1.894575    2.259274
     18          6           0        3.403588    2.478686   -0.435488
     19          1           0        3.549164    2.239103   -1.488150
     20          1           0        4.380972    2.618121    0.023521
     21          1           0        2.856955    3.417147   -0.358431
     22          6           0        0.306162    1.994365   -0.558314
     23          6           0       -1.817790    0.726465    0.040003
     24          6           0       -1.292189   -0.294668    0.933152
     25          8           0       -0.104649   -0.312403    1.318168
     26          6           0       -2.232947   -1.294757    1.375695
     27          6           0       -3.533979   -1.293697    0.998149
     28          6           0       -4.014921   -0.268734    0.160103
     29          6           0       -3.167145    0.724739   -0.283972
     30          6           0        0.407183   -0.761569   -1.791150
     31          1           0       -0.235917    0.009424   -2.199221
     32          1           0       -0.188761   -1.465037   -1.212921
     33          1           0        0.909346   -1.285950   -2.599556
     34          6           0       -1.027963    1.824682   -0.450505
     35          1           0        0.656989    2.999362   -0.759546
     36          1           0       -1.614192    2.694857   -0.727619
     37          1           0       -3.566997    1.509297   -0.910448
     38          1           0       -4.213906   -2.061071    1.336722
     39          1           0       -1.848151   -2.065719    2.029856
     40          7           0       -5.385933   -0.248635   -0.221433
     41          8           0       -5.792916    0.655550   -0.943938
     42          8           0       -6.123714   -1.140528    0.184979
 ---------------------------------------------------------------------
 Rotational constants (GHZ):           0.6007015           0.1254872           0.1158719
 Leave Link  202 at Sun Mar 10 13:14:43 2024, MaxMem=  2684354560 cpu:               0.8 elap:               0.1
 (Enter /s/ls4/groups/g0130/bin/g16/l301.exe)
 Standard basis: def2TZVP (5D, 7F)
 Ernie: Thresh=  0.10000D-02 Tol=  0.10000D-05 Strict=F.
 AO basis set in the form of general basis input (Overlap normalization):
      1 0
 S   6 1.00       0.000000000000
      0.1357534968D+05  0.6064550360D-03
      0.2035233368D+04  0.4697908888D-02
      0.4632256236D+03  0.2433247765D-01
      0.1312001960D+03  0.9739996831D-01
      0.4285301589D+02  0.3019558425D+00
      0.1558418577D+02  0.6623360914D+00
 S   2 1.00       0.000000000000
      0.6206713851D+01  0.6559530854D+00
      0.2576489653D+01  0.3758563329D+00
 S   1 1.00       0.000000000000
      0.5769633942D+00  0.1000000000D+01
 S   1 1.00       0.000000000000
      0.2297283136D+00  0.1000000000D+01
 S   1 1.00       0.000000000000
      0.9516444003D-01  0.1000000000D+01
 P   4 1.00       0.000000000000
      0.3469723224D+02  0.1132722000D-01
      0.7958262283D+01  0.7616965920D-01
      0.2378082688D+01  0.3019225220D+00
      0.8143320818D+00  0.7278502735D+00
 P   1 1.00       0.000000000000
      0.2888754725D+00  0.1000000000D+01
 P   1 1.00       0.000000000000
      0.1005682367D+00  0.1000000000D+01
 D   1 1.00       0.000000000000
      0.1097000000D+01  0.1000000000D+01
 D   1 1.00       0.000000000000
      0.3180000000D+00  0.1000000000D+01
 F   1 1.00       0.000000000000
      0.7610000000D+00  0.1000000000D+01
 ****
      2 0
 S   6 1.00       0.000000000000
      0.1357534968D+05  0.6064550360D-03
      0.2035233368D+04  0.4697908888D-02
      0.4632256236D+03  0.2433247765D-01
      0.1312001960D+03  0.9739996831D-01
      0.4285301589D+02  0.3019558425D+00
      0.1558418577D+02  0.6623360914D+00
 S   2 1.00       0.000000000000
      0.6206713851D+01  0.6559530854D+00
      0.2576489653D+01  0.3758563329D+00
 S   1 1.00       0.000000000000
      0.5769633942D+00  0.1000000000D+01
 S   1 1.00       0.000000000000
      0.2297283136D+00  0.1000000000D+01
 S   1 1.00       0.000000000000
      0.9516444003D-01  0.1000000000D+01
 P   4 1.00       0.000000000000
      0.3469723224D+02  0.1132722000D-01
      0.7958262283D+01  0.7616965920D-01
      0.2378082688D+01  0.3019225220D+00
      0.8143320818D+00  0.7278502735D+00
 P   1 1.00       0.000000000000
      0.2888754725D+00  0.1000000000D+01
 P   1 1.00       0.000000000000
      0.1005682367D+00  0.1000000000D+01
 D   1 1.00       0.000000000000
      0.1097000000D+01  0.1000000000D+01
 D   1 1.00       0.000000000000
      0.3180000000D+00  0.1000000000D+01
 F   1 1.00       0.000000000000
      0.7610000000D+00  0.1000000000D+01
 ****
      3 0
 S   6 1.00       0.000000000000
      0.1357534968D+05  0.6064550360D-03
      0.2035233368D+04  0.4697908888D-02
      0.4632256236D+03  0.2433247765D-01
      0.1312001960D+03  0.9739996831D-01
      0.4285301589D+02  0.3019558425D+00
      0.1558418577D+02  0.6623360914D+00
 S   2 1.00       0.000000000000
      0.6206713851D+01  0.6559530854D+00
      0.2576489653D+01  0.3758563329D+00
 S   1 1.00       0.000000000000
      0.5769633942D+00  0.1000000000D+01
 S   1 1.00       0.000000000000
      0.2297283136D+00  0.1000000000D+01
 S   1 1.00       0.000000000000
      0.9516444003D-01  0.1000000000D+01
 P   4 1.00       0.000000000000
      0.3469723224D+02  0.1132722000D-01
      0.7958262283D+01  0.7616965920D-01
      0.2378082688D+01  0.3019225220D+00
      0.8143320818D+00  0.7278502735D+00
 P   1 1.00       0.000000000000
      0.2888754725D+00  0.1000000000D+01
 P   1 1.00       0.000000000000
      0.1005682367D+00  0.1000000000D+01
 D   1 1.00       0.000000000000
      0.1097000000D+01  0.1000000000D+01
 D   1 1.00       0.000000000000
      0.3180000000D+00  0.1000000000D+01
 F   1 1.00       0.000000000000
      0.7610000000D+00  0.1000000000D+01
 ****
      4 0
 S   6 1.00       0.000000000000
      0.1357534968D+05  0.6064550360D-03
      0.2035233368D+04  0.4697908888D-02
      0.4632256236D+03  0.2433247765D-01
      0.1312001960D+03  0.9739996831D-01
      0.4285301589D+02  0.3019558425D+00
      0.1558418577D+02  0.6623360914D+00
 S   2 1.00       0.000000000000
      0.6206713851D+01  0.6559530854D+00
      0.2576489653D+01  0.3758563329D+00
 S   1 1.00       0.000000000000
      0.5769633942D+00  0.1000000000D+01
 S   1 1.00       0.000000000000
      0.2297283136D+00  0.1000000000D+01
 S   1 1.00       0.000000000000
      0.9516444003D-01  0.1000000000D+01
 P   4 1.00       0.000000000000
      0.3469723224D+02  0.1132722000D-01
      0.7958262283D+01  0.7616965920D-01
      0.2378082688D+01  0.3019225220D+00
      0.8143320818D+00  0.7278502735D+00
 P   1 1.00       0.000000000000
      0.2888754725D+00  0.1000000000D+01
 P   1 1.00       0.000000000000
      0.1005682367D+00  0.1000000000D+01
 D   1 1.00       0.000000000000
      0.1097000000D+01  0.1000000000D+01
 D   1 1.00       0.000000000000
      0.3180000000D+00  0.1000000000D+01
 F   1 1.00       0.000000000000
      0.7610000000D+00  0.1000000000D+01
 ****
      5 0
 S   6 1.00       0.000000000000
      0.1357534968D+05  0.6064550360D-03
      0.2035233368D+04  0.4697908888D-02
      0.4632256236D+03  0.2433247765D-01
      0.1312001960D+03  0.9739996831D-01
      0.4285301589D+02  0.3019558425D+00
      0.1558418577D+02  0.6623360914D+00
 S   2 1.00       0.000000000000
      0.6206713851D+01  0.6559530854D+00
      0.2576489653D+01  0.3758563329D+00
 S   1 1.00       0.000000000000
      0.5769633942D+00  0.1000000000D+01
 S   1 1.00       0.000000000000
      0.2297283136D+00  0.1000000000D+01
 S   1 1.00       0.000000000000
      0.9516444003D-01  0.1000000000D+01
 P   4 1.00       0.000000000000
      0.3469723224D+02  0.1132722000D-01
      0.7958262283D+01  0.7616965920D-01
      0.2378082688D+01  0.3019225220D+00
      0.8143320818D+00  0.7278502735D+00
 P   1 1.00       0.000000000000
      0.2888754725D+00  0.1000000000D+01
 P   1 1.00       0.000000000000
      0.1005682367D+00  0.1000000000D+01
 D   1 1.00       0.000000000000
      0.1097000000D+01  0.1000000000D+01
 D   1 1.00       0.000000000000
      0.3180000000D+00  0.1000000000D+01
 F   1 1.00       0.000000000000
      0.7610000000D+00  0.1000000000D+01
 ****
      6 0
 S   6 1.00       0.000000000000
      0.1357534968D+05  0.6064550360D-03
      0.2035233368D+04  0.4697908888D-02
      0.4632256236D+03  0.2433247765D-01
      0.1312001960D+03  0.9739996831D-01
      0.4285301589D+02  0.3019558425D+00
      0.1558418577D+02  0.6623360914D+00
 S   2 1.00       0.000000000000
      0.6206713851D+01  0.6559530854D+00
      0.2576489653D+01  0.3758563329D+00
 S   1 1.00       0.000000000000
      0.5769633942D+00  0.1000000000D+01
 S   1 1.00       0.000000000000
      0.2297283136D+00  0.1000000000D+01
 S   1 1.00       0.000000000000
      0.9516444003D-01  0.1000000000D+01
 P   4 1.00       0.000000000000
      0.3469723224D+02  0.1132722000D-01
      0.7958262283D+01  0.7616965920D-01
      0.2378082688D+01  0.3019225220D+00
      0.8143320818D+00  0.7278502735D+00
 P   1 1.00       0.000000000000
      0.2888754725D+00  0.1000000000D+01
 P   1 1.00       0.000000000000
      0.1005682367D+00  0.1000000000D+01
 D   1 1.00       0.000000000000
      0.1097000000D+01  0.1000000000D+01
 D   1 1.00       0.000000000000
      0.3180000000D+00  0.1000000000D+01
 F   1 1.00       0.000000000000
      0.7610000000D+00  0.1000000000D+01
 ****
      7 0
 S   3 1.00       0.000000000000
      0.3406134100D+02  0.2543930721D-01
      0.5123574600D+01  0.1900859489D+00
      0.1164662600D+01  0.8524411301D+00
 S   1 1.00       0.000000000000
      0.3272304100D+00  0.1000000000D+01
 S   1 1.00       0.000000000000
      0.1030724100D+00  0.1000000000D+01
 P   1 1.00       0.000000000000
      0.8000000000D+00  0.1000000000D+01
 ****
      8 0
 S   3 1.00       0.000000000000
      0.3406134100D+02  0.2543930721D-01
      0.5123574600D+01  0.1900859489D+00
      0.1164662600D+01  0.8524411301D+00
 S   1 1.00       0.000000000000
      0.3272304100D+00  0.1000000000D+01
 S   1 1.00       0.000000000000
      0.1030724100D+00  0.1000000000D+01
 P   1 1.00       0.000000000000
      0.8000000000D+00  0.1000000000D+01
 ****
      9 0
 S   3 1.00       0.000000000000
      0.3406134100D+02  0.2543930721D-01
      0.5123574600D+01  0.1900859489D+00
      0.1164662600D+01  0.8524411301D+00
 S   1 1.00       0.000000000000
      0.3272304100D+00  0.1000000000D+01
 S   1 1.00       0.000000000000
      0.1030724100D+00  0.1000000000D+01
 P   1 1.00       0.000000000000
      0.8000000000D+00  0.1000000000D+01
 ****
     10 0
 S   3 1.00       0.000000000000
      0.3406134100D+02  0.2543930721D-01
      0.5123574600D+01  0.1900859489D+00
      0.1164662600D+01  0.8524411301D+00
 S   1 1.00       0.000000000000
      0.3272304100D+00  0.1000000000D+01
 S   1 1.00       0.000000000000
      0.1030724100D+00  0.1000000000D+01
 P   1 1.00       0.000000000000
      0.8000000000D+00  0.1000000000D+01
 ****
     11 0
 S   6 1.00       0.000000000000
      0.1357534968D+05  0.6064550360D-03
      0.2035233368D+04  0.4697908888D-02
      0.4632256236D+03  0.2433247765D-01
      0.1312001960D+03  0.9739996831D-01
      0.4285301589D+02  0.3019558425D+00
      0.1558418577D+02  0.6623360914D+00
 S   2 1.00       0.000000000000
      0.6206713851D+01  0.6559530854D+00
      0.2576489653D+01  0.3758563329D+00
 S   1 1.00       0.000000000000
      0.5769633942D+00  0.1000000000D+01
 S   1 1.00       0.000000000000
      0.2297283136D+00  0.1000000000D+01
 S   1 1.00       0.000000000000
      0.9516444003D-01  0.1000000000D+01
 P   4 1.00       0.000000000000
      0.3469723224D+02  0.1132722000D-01
      0.7958262283D+01  0.7616965920D-01
      0.2378082688D+01  0.3019225220D+00
      0.8143320818D+00  0.7278502735D+00
 P   1 1.00       0.000000000000
      0.2888754725D+00  0.1000000000D+01
 P   1 1.00       0.000000000000
      0.1005682367D+00  0.1000000000D+01
 D   1 1.00       0.000000000000
      0.1097000000D+01  0.1000000000D+01
 D   1 1.00       0.000000000000
      0.3180000000D+00  0.1000000000D+01
 F   1 1.00       0.000000000000
      0.7610000000D+00  0.1000000000D+01
 ****
     12 0
 S   6 1.00       0.000000000000
      0.1357534968D+05  0.6064550360D-03
      0.2035233368D+04  0.4697908888D-02
      0.4632256236D+03  0.2433247765D-01
      0.1312001960D+03  0.9739996831D-01
      0.4285301589D+02  0.3019558425D+00
      0.1558418577D+02  0.6623360914D+00
 S   2 1.00       0.000000000000
      0.6206713851D+01  0.6559530854D+00
      0.2576489653D+01  0.3758563329D+00
 S   1 1.00       0.000000000000
      0.5769633942D+00  0.1000000000D+01
 S   1 1.00       0.000000000000
      0.2297283136D+00  0.1000000000D+01
 S   1 1.00       0.000000000000
      0.9516444003D-01  0.1000000000D+01
 P   4 1.00       0.000000000000
      0.3469723224D+02  0.1132722000D-01
      0.7958262283D+01  0.7616965920D-01
      0.2378082688D+01  0.3019225220D+00
      0.8143320818D+00  0.7278502735D+00
 P   1 1.00       0.000000000000
      0.2888754725D+00  0.1000000000D+01
 P   1 1.00       0.000000000000
      0.1005682367D+00  0.1000000000D+01
 D   1 1.00       0.000000000000
      0.1097000000D+01  0.1000000000D+01
 D   1 1.00       0.000000000000
      0.3180000000D+00  0.1000000000D+01
 F   1 1.00       0.000000000000
      0.7610000000D+00  0.1000000000D+01
 ****
     13 0
 S   6 1.00       0.000000000000
      0.1973080065D+05  0.5862640263D-03
      0.2957895874D+04  0.4542882059D-02
      0.6732213360D+03  0.2355841345D-01
      0.1906824949D+03  0.9470919329D-01
      0.6229544190D+02  0.2971978491D+00
      0.2265416118D+02  0.6691624690D+00
 S   2 1.00       0.000000000000
      0.8979147743D+01  0.6459668363D+00
      0.3686300237D+01  0.3870057439D+00
 S   1 1.00       0.000000000000
      0.8466007680D+00  0.1000000000D+01
 S   1 1.00       0.000000000000
      0.3364713377D+00  0.1000000000D+01
 S   1 1.00       0.000000000000
      0.1364765367D+00  0.1000000000D+01
 P   4 1.00       0.000000000000
      0.4920038051D+02  0.1144882510D-01
      0.1134679054D+02  0.7842233797D-01
      0.3427397241D+01  0.3081809474D+00
      0.1178552513D+01  0.7202719637D+00
 P   1 1.00       0.000000000000
      0.4164220497D+00  0.1000000000D+01
 P   1 1.00       0.000000000000
      0.1426082601D+00  0.1000000000D+01
 D   1 1.00       0.000000000000
      0.1654000000D+01  0.1000000000D+01
 D   1 1.00       0.000000000000
      0.4690000000D+00  0.1000000000D+01
 F   1 1.00       0.000000000000
      0.1093000000D+01  0.1000000000D+01
 ****
     14 0
 S   6 1.00       0.000000000000
      0.1357534968D+05  0.6064550360D-03
      0.2035233368D+04  0.4697908888D-02
      0.4632256236D+03  0.2433247765D-01
      0.1312001960D+03  0.9739996831D-01
      0.4285301589D+02  0.3019558425D+00
      0.1558418577D+02  0.6623360914D+00
 S   2 1.00       0.000000000000
      0.6206713851D+01  0.6559530854D+00
      0.2576489653D+01  0.3758563329D+00
 S   1 1.00       0.000000000000
      0.5769633942D+00  0.1000000000D+01
 S   1 1.00       0.000000000000
      0.2297283136D+00  0.1000000000D+01
 S   1 1.00       0.000000000000
      0.9516444003D-01  0.1000000000D+01
 P   4 1.00       0.000000000000
      0.3469723224D+02  0.1132722000D-01
      0.7958262283D+01  0.7616965920D-01
      0.2378082688D+01  0.3019225220D+00
      0.8143320818D+00  0.7278502735D+00
 P   1 1.00       0.000000000000
      0.2888754725D+00  0.1000000000D+01
 P   1 1.00       0.000000000000
      0.1005682367D+00  0.1000000000D+01
 D   1 1.00       0.000000000000
      0.1097000000D+01  0.1000000000D+01
 D   1 1.00       0.000000000000
      0.3180000000D+00  0.1000000000D+01
 F   1 1.00       0.000000000000
      0.7610000000D+00  0.1000000000D+01
 ****
     15 0
 S   3 1.00       0.000000000000
      0.3406134100D+02  0.2543930721D-01
      0.5123574600D+01  0.1900859489D+00
      0.1164662600D+01  0.8524411301D+00
 S   1 1.00       0.000000000000
      0.3272304100D+00  0.1000000000D+01
 S   1 1.00       0.000000000000
      0.1030724100D+00  0.1000000000D+01
 P   1 1.00       0.000000000000
      0.8000000000D+00  0.1000000000D+01
 ****
     16 0
 S   3 1.00       0.000000000000
      0.3406134100D+02  0.2543930721D-01
      0.5123574600D+01  0.1900859489D+00
      0.1164662600D+01  0.8524411301D+00
 S   1 1.00       0.000000000000
      0.3272304100D+00  0.1000000000D+01
 S   1 1.00       0.000000000000
      0.1030724100D+00  0.1000000000D+01
 P   1 1.00       0.000000000000
      0.8000000000D+00  0.1000000000D+01
 ****
     17 0
 S   3 1.00       0.000000000000
      0.3406134100D+02  0.2543930721D-01
      0.5123574600D+01  0.1900859489D+00
      0.1164662600D+01  0.8524411301D+00
 S   1 1.00       0.000000000000
      0.3272304100D+00  0.1000000000D+01
 S   1 1.00       0.000000000000
      0.1030724100D+00  0.1000000000D+01
 P   1 1.00       0.000000000000
      0.8000000000D+00  0.1000000000D+01
 ****
     18 0
 S   6 1.00       0.000000000000
      0.1357534968D+05  0.6064550360D-03
      0.2035233368D+04  0.4697908888D-02
      0.4632256236D+03  0.2433247765D-01
      0.1312001960D+03  0.9739996831D-01
      0.4285301589D+02  0.3019558425D+00
      0.1558418577D+02  0.6623360914D+00
 S   2 1.00       0.000000000000
      0.6206713851D+01  0.6559530854D+00
      0.2576489653D+01  0.3758563329D+00
 S   1 1.00       0.000000000000
      0.5769633942D+00  0.1000000000D+01
 S   1 1.00       0.000000000000
      0.2297283136D+00  0.1000000000D+01
 S   1 1.00       0.000000000000
      0.9516444003D-01  0.1000000000D+01
 P   4 1.00       0.000000000000
      0.3469723224D+02  0.1132722000D-01
      0.7958262283D+01  0.7616965920D-01
      0.2378082688D+01  0.3019225220D+00
      0.8143320818D+00  0.7278502735D+00
 P   1 1.00       0.000000000000
      0.2888754725D+00  0.1000000000D+01
 P   1 1.00       0.000000000000
      0.1005682367D+00  0.1000000000D+01
 D   1 1.00       0.000000000000
      0.1097000000D+01  0.1000000000D+01
 D   1 1.00       0.000000000000
      0.3180000000D+00  0.1000000000D+01
 F   1 1.00       0.000000000000
      0.7610000000D+00  0.1000000000D+01
 ****
     19 0
 S   3 1.00       0.000000000000
      0.3406134100D+02  0.2543930721D-01
      0.5123574600D+01  0.1900859489D+00
      0.1164662600D+01  0.8524411301D+00
 S   1 1.00       0.000000000000
      0.3272304100D+00  0.1000000000D+01
 S   1 1.00       0.000000000000
      0.1030724100D+00  0.1000000000D+01
 P   1 1.00       0.000000000000
      0.8000000000D+00  0.1000000000D+01
 ****
     20 0
 S   3 1.00       0.000000000000
      0.3406134100D+02  0.2543930721D-01
      0.5123574600D+01  0.1900859489D+00
      0.1164662600D+01  0.8524411301D+00
 S   1 1.00       0.000000000000
      0.3272304100D+00  0.1000000000D+01
 S   1 1.00       0.000000000000
      0.1030724100D+00  0.1000000000D+01
 P   1 1.00       0.000000000000
      0.8000000000D+00  0.1000000000D+01
 ****
     21 0
 S   3 1.00       0.000000000000
      0.3406134100D+02  0.2543930721D-01
      0.5123574600D+01  0.1900859489D+00
      0.1164662600D+01  0.8524411301D+00
 S   1 1.00       0.000000000000
      0.3272304100D+00  0.1000000000D+01
 S   1 1.00       0.000000000000
      0.1030724100D+00  0.1000000000D+01
 P   1 1.00       0.000000000000
      0.8000000000D+00  0.1000000000D+01
 ****
     22 0
 S   6 1.00       0.000000000000
      0.1357534968D+05  0.6064550360D-03
      0.2035233368D+04  0.4697908888D-02
      0.4632256236D+03  0.2433247765D-01
      0.1312001960D+03  0.9739996831D-01
      0.4285301589D+02  0.3019558425D+00
      0.1558418577D+02  0.6623360914D+00
 S   2 1.00       0.000000000000
      0.6206713851D+01  0.6559530854D+00
      0.2576489653D+01  0.3758563329D+00
 S   1 1.00       0.000000000000
      0.5769633942D+00  0.1000000000D+01
 S   1 1.00       0.000000000000
      0.2297283136D+00  0.1000000000D+01
 S   1 1.00       0.000000000000
      0.9516444003D-01  0.1000000000D+01
 P   4 1.00       0.000000000000
      0.3469723224D+02  0.1132722000D-01
      0.7958262283D+01  0.7616965920D-01
      0.2378082688D+01  0.3019225220D+00
      0.8143320818D+00  0.7278502735D+00
 P   1 1.00       0.000000000000
      0.2888754725D+00  0.1000000000D+01
 P   1 1.00       0.000000000000
      0.1005682367D+00  0.1000000000D+01
 D   1 1.00       0.000000000000
      0.1097000000D+01  0.1000000000D+01
 D   1 1.00       0.000000000000
      0.3180000000D+00  0.1000000000D+01
 F   1 1.00       0.000000000000
      0.7610000000D+00  0.1000000000D+01
 ****
     23 0
 S   6 1.00       0.000000000000
      0.1357534968D+05  0.6064550360D-03
      0.2035233368D+04  0.4697908888D-02
      0.4632256236D+03  0.2433247765D-01
      0.1312001960D+03  0.9739996831D-01
      0.4285301589D+02  0.3019558425D+00
      0.1558418577D+02  0.6623360914D+00
 S   2 1.00       0.000000000000
      0.6206713851D+01  0.6559530854D+00
      0.2576489653D+01  0.3758563329D+00
 S   1 1.00       0.000000000000
      0.5769633942D+00  0.1000000000D+01
 S   1 1.00       0.000000000000
      0.2297283136D+00  0.1000000000D+01
 S   1 1.00       0.000000000000
      0.9516444003D-01  0.1000000000D+01
 P   4 1.00       0.000000000000
      0.3469723224D+02  0.1132722000D-01
      0.7958262283D+01  0.7616965920D-01
      0.2378082688D+01  0.3019225220D+00
      0.8143320818D+00  0.7278502735D+00
 P   1 1.00       0.000000000000
      0.2888754725D+00  0.1000000000D+01
 P   1 1.00       0.000000000000
      0.1005682367D+00  0.1000000000D+01
 D   1 1.00       0.000000000000
      0.1097000000D+01  0.1000000000D+01
 D   1 1.00       0.000000000000
      0.3180000000D+00  0.1000000000D+01
 F   1 1.00       0.000000000000
      0.7610000000D+00  0.1000000000D+01
 ****
     24 0
 S   6 1.00       0.000000000000
      0.1357534968D+05  0.6064550360D-03
      0.2035233368D+04  0.4697908888D-02
      0.4632256236D+03  0.2433247765D-01
      0.1312001960D+03  0.9739996831D-01
      0.4285301589D+02  0.3019558425D+00
      0.1558418577D+02  0.6623360914D+00
 S   2 1.00       0.000000000000
      0.6206713851D+01  0.6559530854D+00
      0.2576489653D+01  0.3758563329D+00
 S   1 1.00       0.000000000000
      0.5769633942D+00  0.1000000000D+01
 S   1 1.00       0.000000000000
      0.2297283136D+00  0.1000000000D+01
 S   1 1.00       0.000000000000
      0.9516444003D-01  0.1000000000D+01
 P   4 1.00       0.000000000000
      0.3469723224D+02  0.1132722000D-01
      0.7958262283D+01  0.7616965920D-01
      0.2378082688D+01  0.3019225220D+00
      0.8143320818D+00  0.7278502735D+00
 P   1 1.00       0.000000000000
      0.2888754725D+00  0.1000000000D+01
 P   1 1.00       0.000000000000
      0.1005682367D+00  0.1000000000D+01
 D   1 1.00       0.000000000000
      0.1097000000D+01  0.1000000000D+01
 D   1 1.00       0.000000000000
      0.3180000000D+00  0.1000000000D+01
 F   1 1.00       0.000000000000
      0.7610000000D+00  0.1000000000D+01
 ****
     25 0
 S   6 1.00       0.000000000000
      0.2703238263D+05  0.5722733521D-03
      0.4052387139D+04  0.4435323349D-02
      0.9223272271D+03  0.2302010771D-01
      0.2612407099D+03  0.9282249067D-01
      0.8535464135D+02  0.2937850001D+00
      0.3103503524D+02  0.6740160450D+00
 S   2 1.00       0.000000000000
      0.1226086073D+02  0.6383993703D+00
      0.4998707601D+01  0.3953458713D+00
 S   1 1.00       0.000000000000
      0.1170310816D+01  0.1000000000D+01
 S   1 1.00       0.000000000000
      0.4647474099D+00  0.1000000000D+01
 S   1 1.00       0.000000000000
      0.1850453636D+00  0.1000000000D+01
 P   4 1.00       0.000000000000
      0.6327495480D+02  0.1201833222D-01
      0.1462704938D+02  0.8300542179D-01
      0.4450122346D+01  0.3199174393D+00
      0.1527579965D+01  0.7071554292D+00
 P   1 1.00       0.000000000000
      0.5293511794D+00  0.1000000000D+01
 P   1 1.00       0.000000000000
      0.1747842127D+00  0.1000000000D+01
 D   1 1.00       0.000000000000
      0.2314000000D+01  0.1000000000D+01
 D   1 1.00       0.000000000000
      0.6450000000D+00  0.1000000000D+01
 F   1 1.00       0.000000000000
      0.1428000000D+01  0.1000000000D+01
 ****
     26 0
 S   6 1.00       0.000000000000
      0.1357534968D+05  0.6064550360D-03
      0.2035233368D+04  0.4697908888D-02
      0.4632256236D+03  0.2433247765D-01
      0.1312001960D+03  0.9739996831D-01
      0.4285301589D+02  0.3019558425D+00
      0.1558418577D+02  0.6623360914D+00
 S   2 1.00       0.000000000000
      0.6206713851D+01  0.6559530854D+00
      0.2576489653D+01  0.3758563329D+00
 S   1 1.00       0.000000000000
      0.5769633942D+00  0.1000000000D+01
 S   1 1.00       0.000000000000
      0.2297283136D+00  0.1000000000D+01
 S   1 1.00       0.000000000000
      0.9516444003D-01  0.1000000000D+01
 P   4 1.00       0.000000000000
      0.3469723224D+02  0.1132722000D-01
      0.7958262283D+01  0.7616965920D-01
      0.2378082688D+01  0.3019225220D+00
      0.8143320818D+00  0.7278502735D+00
 P   1 1.00       0.000000000000
      0.2888754725D+00  0.1000000000D+01
 P   1 1.00       0.000000000000
      0.1005682367D+00  0.1000000000D+01
 D   1 1.00       0.000000000000
      0.1097000000D+01  0.1000000000D+01
 D   1 1.00       0.000000000000
      0.3180000000D+00  0.1000000000D+01
 F   1 1.00       0.000000000000
      0.7610000000D+00  0.1000000000D+01
 ****
     27 0
 S   6 1.00       0.000000000000
      0.1357534968D+05  0.6064550360D-03
      0.2035233368D+04  0.4697908888D-02
      0.4632256236D+03  0.2433247765D-01
      0.1312001960D+03  0.9739996831D-01
      0.4285301589D+02  0.3019558425D+00
      0.1558418577D+02  0.6623360914D+00
 S   2 1.00       0.000000000000
      0.6206713851D+01  0.6559530854D+00
      0.2576489653D+01  0.3758563329D+00
 S   1 1.00       0.000000000000
      0.5769633942D+00  0.1000000000D+01
 S   1 1.00       0.000000000000
      0.2297283136D+00  0.1000000000D+01
 S   1 1.00       0.000000000000
      0.9516444003D-01  0.1000000000D+01
 P   4 1.00       0.000000000000
      0.3469723224D+02  0.1132722000D-01
      0.7958262283D+01  0.7616965920D-01
      0.2378082688D+01  0.3019225220D+00
      0.8143320818D+00  0.7278502735D+00
 P   1 1.00       0.000000000000
      0.2888754725D+00  0.1000000000D+01
 P   1 1.00       0.000000000000
      0.1005682367D+00  0.1000000000D+01
 D   1 1.00       0.000000000000
      0.1097000000D+01  0.1000000000D+01
 D   1 1.00       0.000000000000
      0.3180000000D+00  0.1000000000D+01
 F   1 1.00       0.000000000000
      0.7610000000D+00  0.1000000000D+01
 ****
     28 0
 S   6 1.00       0.000000000000
      0.1357534968D+05  0.6064550360D-03
      0.2035233368D+04  0.4697908888D-02
      0.4632256236D+03  0.2433247765D-01
      0.1312001960D+03  0.9739996831D-01
      0.4285301589D+02  0.3019558425D+00
      0.1558418577D+02  0.6623360914D+00
 S   2 1.00       0.000000000000
      0.6206713851D+01  0.6559530854D+00
      0.2576489653D+01  0.3758563329D+00
 S   1 1.00       0.000000000000
      0.5769633942D+00  0.1000000000D+01
 S   1 1.00       0.000000000000
      0.2297283136D+00  0.1000000000D+01
 S   1 1.00       0.000000000000
      0.9516444003D-01  0.1000000000D+01
 P   4 1.00       0.000000000000
      0.3469723224D+02  0.1132722000D-01
      0.7958262283D+01  0.7616965920D-01
      0.2378082688D+01  0.3019225220D+00
      0.8143320818D+00  0.7278502735D+00
 P   1 1.00       0.000000000000
      0.2888754725D+00  0.1000000000D+01
 P   1 1.00       0.000000000000
      0.1005682367D+00  0.1000000000D+01
 D   1 1.00       0.000000000000
      0.1097000000D+01  0.1000000000D+01
 D   1 1.00       0.000000000000
      0.3180000000D+00  0.1000000000D+01
 F   1 1.00       0.000000000000
      0.7610000000D+00  0.1000000000D+01
 ****
     29 0
 S   6 1.00       0.000000000000
      0.1357534968D+05  0.6064550360D-03
      0.2035233368D+04  0.4697908888D-02
      0.4632256236D+03  0.2433247765D-01
      0.1312001960D+03  0.9739996831D-01
      0.4285301589D+02  0.3019558425D+00
      0.1558418577D+02  0.6623360914D+00
 S   2 1.00       0.000000000000
      0.6206713851D+01  0.6559530854D+00
      0.2576489653D+01  0.3758563329D+00
 S   1 1.00       0.000000000000
      0.5769633942D+00  0.1000000000D+01
 S   1 1.00       0.000000000000
      0.2297283136D+00  0.1000000000D+01
 S   1 1.00       0.000000000000
      0.9516444003D-01  0.1000000000D+01
 P   4 1.00       0.000000000000
      0.3469723224D+02  0.1132722000D-01
      0.7958262283D+01  0.7616965920D-01
      0.2378082688D+01  0.3019225220D+00
      0.8143320818D+00  0.7278502735D+00
 P   1 1.00       0.000000000000
      0.2888754725D+00  0.1000000000D+01
 P   1 1.00       0.000000000000
      0.1005682367D+00  0.1000000000D+01
 D   1 1.00       0.000000000000
      0.1097000000D+01  0.1000000000D+01
 D   1 1.00       0.000000000000
      0.3180000000D+00  0.1000000000D+01
 F   1 1.00       0.000000000000
      0.7610000000D+00  0.1000000000D+01
 ****
     30 0
 S   6 1.00       0.000000000000
      0.1357534968D+05  0.6064550360D-03
      0.2035233368D+04  0.4697908888D-02
      0.4632256236D+03  0.2433247765D-01
      0.1312001960D+03  0.9739996831D-01
      0.4285301589D+02  0.3019558425D+00
      0.1558418577D+02  0.6623360914D+00
 S   2 1.00       0.000000000000
      0.6206713851D+01  0.6559530854D+00
      0.2576489653D+01  0.3758563329D+00
 S   1 1.00       0.000000000000
      0.5769633942D+00  0.1000000000D+01
 S   1 1.00       0.000000000000
      0.2297283136D+00  0.1000000000D+01
 S   1 1.00       0.000000000000
      0.9516444003D-01  0.1000000000D+01
 P   4 1.00       0.000000000000
      0.3469723224D+02  0.1132722000D-01
      0.7958262283D+01  0.7616965920D-01
      0.2378082688D+01  0.3019225220D+00
      0.8143320818D+00  0.7278502735D+00
 P   1 1.00       0.000000000000
      0.2888754725D+00  0.1000000000D+01
 P   1 1.00       0.000000000000
      0.1005682367D+00  0.1000000000D+01
 D   1 1.00       0.000000000000
[...]
     9  H   -0.000015   0.000806  -0.000040  -0.000039  -0.000001  -0.000000
    10  H    0.000011   0.000002  -0.000002  -0.000008   0.000005  -0.000027
    11  C   -0.013197  -0.032757  -0.041576  -0.048254   0.021097  -0.015366
    12  C   -0.013999   0.012984  -0.010144   0.265181   0.005772   0.019442
    13  N    0.000477  -0.000190   0.000526  -0.077649  -0.010536  -0.016660
    14  C    0.010819  -0.007343  -0.008981  -0.004074  -0.009687   0.004102
    15  H   -0.000285   0.000083  -0.000118  -0.006422   0.003709  -0.002591
    16  H   -0.000123  -0.000055   0.002040   0.009455   0.000906  -0.000404
    17  H   -0.000065   0.002117   0.000140  -0.000123  -0.000118   0.000143
    18  C    0.405452   0.416984   0.415053  -0.005914  -0.001347   0.000473
    19  H    0.517832  -0.020423  -0.020374   0.002994   0.000136  -0.000022
    20  H   -0.020423   0.510929  -0.020777  -0.000711  -0.000014  -0.000006
    21  H   -0.020374  -0.020777   0.516685  -0.002150  -0.000079   0.000023
    22  C    0.002994  -0.000711  -0.002150   5.393956   0.002890  -0.041702
    23  C    0.000136  -0.000014  -0.000079   0.002890   6.722970  -0.612901
    24  C   -0.000022  -0.000006   0.000023  -0.041702  -0.612901   5.373267
    25  O   -0.000003   0.000015  -0.000018  -0.031159  -0.262716   0.716485
    26  C   -0.000001  -0.000001   0.000000   0.000298   0.076057   0.242388
    27  C    0.000000   0.000000   0.000000   0.001083  -0.179504   0.148420
    28  C   -0.000000   0.000000   0.000000  -0.003681   0.088417  -0.180416
    29  C    0.000004  -0.000000  -0.000001   0.014632   0.081395   0.238004
    30  C   -0.000313   0.000040  -0.000008  -0.002848  -0.031080   0.007024
    31  H    0.000004   0.000001  -0.000009  -0.014160  -0.010001  -0.002482
    32  H    0.000027  -0.000000   0.000000   0.009227  -0.001694   0.002035
    33  H   -0.000034  -0.000006  -0.000003  -0.002564   0.000813   0.000474
    34  C   -0.000521   0.000081   0.000217   0.367253   0.180741  -0.034516
    35  H    0.000116  -0.000072   0.002316   0.431062   0.007643   0.000191
    36  H   -0.000003  -0.000001   0.000011  -0.048811  -0.051836   0.005071
    37  H    0.000000  -0.000000  -0.000000   0.000134  -0.039580   0.006120
    38  H    0.000000  -0.000000  -0.000000  -0.000006  -0.006633   0.011744
    39  H    0.000000   0.000000   0.000000   0.000055   0.044334  -0.090332
    40  N   -0.000000  -0.000000  -0.000000   0.000019   0.009311  -0.002100
    41  O   -0.000000  -0.000000  -0.000000   0.000015  -0.004223   0.001465
    42  O    0.000000  -0.000000  -0.000000  -0.000000  -0.002766   0.001247
              25         26         27         28         29         30
     1  C    0.000045  -0.000054   0.000011  -0.000000  -0.000001  -0.000265
     2  C   -0.000015   0.000097  -0.000062   0.000006  -0.000003  -0.000820
     3  C   -0.001939   0.004910  -0.000694   0.000016  -0.000475  -0.010327
     4  C    0.006678  -0.010884   0.001019  -0.000001   0.000930  -0.049487
     5  C    0.010588  -0.002154   0.000405  -0.000060   0.000281   0.006062
     6  C   -0.000188   0.000068  -0.000005  -0.000001  -0.000003   0.001016
     7  H    0.000001  -0.000000   0.000000  -0.000000   0.000000  -0.000001
     8  H    0.000000  -0.000013  -0.000000  -0.000000   0.000000  -0.000002
     9  H   -0.000001   0.000001   0.000000   0.000000  -0.000000   0.000027
    10  H   -0.000001   0.000092   0.000187   0.000018  -0.000059   0.001481
    11  C   -0.030726  -0.000272  -0.000362   0.000188  -0.000810   0.002100
    12  C   -0.000448  -0.003245   0.001572  -0.001188   0.004890  -0.049667
    13  N   -0.011234   0.006638  -0.001209   0.002802  -0.008924   0.243169
    14  C   -0.000864   0.000523  -0.000025  -0.000010   0.000109  -0.000005
    15  H    0.007925  -0.000146  -0.000013   0.000020  -0.000118  -0.000127
    16  H   -0.001044  -0.000007   0.000001  -0.000001   0.000010  -0.000020
    17  H    0.000577   0.000015  -0.000001   0.000000  -0.000003   0.000030
    18  C    0.000664  -0.000015   0.000003  -0.000002   0.000024   0.000559
    19  H   -0.000003  -0.000001   0.000000  -0.000000   0.000004  -0.000313
    20  H    0.000015  -0.000001   0.000000   0.000000  -0.000000   0.000040
    21  H   -0.000018   0.000000   0.000000   0.000000  -0.000001  -0.000008
    22  C   -0.031159   0.000298   0.001083  -0.003681   0.014632  -0.002848
    23  C   -0.262716   0.076057  -0.179504   0.088417   0.081395  -0.031080
    24  C    0.716485   0.242388   0.148420  -0.180416   0.238004   0.007024
    25  O    8.077892  -0.121264   0.016052  -0.004666   0.013911   0.002205
    26  C   -0.121264   5.662637   0.097241   0.125291  -0.257404  -0.004194
    27  C    0.016052   0.097241   5.527459   0.108091   0.090429   0.002859
    28  C   -0.004666   0.125291   0.108091   5.646253   0.107010  -0.002898
    29  C    0.013911  -0.257404   0.090429   0.107010   5.662459   0.003651
    30  C    0.002205  -0.004194   0.002859  -0.002898   0.003651   5.005410
    31  H    0.000068   0.000237  -0.000291   0.000391  -0.006746   0.414110
    32  H    0.000262  -0.005015   0.002761  -0.007019   0.009806   0.417894
    33  H   -0.000120   0.000331  -0.000029   0.000083  -0.000497   0.403425
    34  C    0.059054   0.042368  -0.019149   0.043698  -0.200069   0.000630
    35  H   -0.000399   0.000046  -0.000008   0.000012  -0.000518  -0.000094
    36  H    0.000487  -0.000012  -0.000098   0.001338   0.000244   0.000298
    37  H    0.000007  -0.003404   0.005866  -0.048848   0.437206  -0.000313
    38  H   -0.000145  -0.037603   0.430921  -0.050128   0.007764   0.000113
    39  H    0.014660   0.437240  -0.061387   0.017130  -0.008581  -0.000613
    40  N    0.000003   0.008926  -0.067995   0.460676  -0.068312  -0.000042
    41  O   -0.000000  -0.002193   0.024029  -0.181341   0.038425  -0.000093
    42  O   -0.000000  -0.004124   0.041750  -0.178564   0.023309   0.000014
              31         32         33         34         35         36
     1  C    0.000007   0.000042  -0.000203  -0.000056   0.000001  -0.000000
     2  C    0.000010  -0.000106   0.000398   0.000115  -0.000000   0.000000
     3  C    0.001122  -0.000595  -0.003365  -0.000612   0.000025  -0.000003
     4  C    0.012040  -0.007395  -0.006939  -0.000419  -0.000315  -0.000002
     5  C   -0.001449  -0.000196   0.001663  -0.004092   0.000705   0.000007
     6  C   -0.000015  -0.000115   0.000255   0.000336  -0.000011   0.000001
     7  H   -0.000000   0.000000   0.000000  -0.000000  -0.000000  -0.000000
     8  H   -0.000001  -0.000004   0.000000   0.000000   0.000000   0.000000
     9  H   -0.000001  -0.000000   0.000003   0.000003  -0.000002   0.000000
    10  H    0.000266  -0.000922  -0.002270   0.000006  -0.000000  -0.000000
    11  C    0.006013  -0.003126   0.000815   0.000218   0.004393  -0.000061
    12  C   -0.012455   0.002518  -0.000123  -0.034036  -0.054865   0.010279
    13  N   -0.024022  -0.038834  -0.022675   0.020157   0.004541  -0.000126
    14  C   -0.000057   0.000048   0.000006   0.007537  -0.004128   0.000007
    15  H    0.000007  -0.000003  -0.000001  -0.000511  -0.000027  -0.000002
    16  H    0.000001   0.000000  -0.000001  -0.001322  -0.000092  -0.000007
    17  H    0.000001  -0.000001   0.000000   0.000171   0.000048   0.000001
    18  C    0.000103  -0.000048   0.000213   0.001661  -0.000703   0.000023
    19  H    0.000004   0.000027  -0.000034  -0.000521   0.000116  -0.000003
    20  H    0.000001  -0.000000  -0.000006   0.000081  -0.000072  -0.000001
    21  H   -0.000009   0.000000  -0.000003   0.000217   0.002316   0.000011
    22  C   -0.014160   0.009227  -0.002564   0.367253   0.431062  -0.048811
    23  C   -0.010001  -0.001694   0.000813   0.180741   0.007643  -0.051836
    24  C   -0.002482   0.002035   0.000474  -0.034516   0.000191   0.005071
    25  O    0.000068   0.000262  -0.000120   0.059054  -0.000399   0.000487
    26  C    0.000237  -0.005015   0.000331   0.042368   0.000046  -0.000012
    27  C   -0.000291   0.002761  -0.000029  -0.019149  -0.000008  -0.000098
    28  C    0.000391  -0.007019   0.000083   0.043698   0.000012   0.001338
    29  C   -0.006746   0.009806  -0.000497  -0.200069  -0.000518   0.000244
    30  C    0.414110   0.417894   0.403425   0.000630  -0.000094   0.000298
    31  H    0.471574  -0.020599  -0.011722   0.007447   0.000097   0.000175
    32  H   -0.020599   0.492203  -0.028952  -0.010610   0.000009  -0.000097
    33  H   -0.011722  -0.028952   0.483043   0.002532   0.000007   0.000014
    34  C    0.007447  -0.010610   0.002532   5.325884  -0.031615   0.441119
    35  H    0.000097   0.000009   0.000007  -0.031615   0.477431  -0.004553
    36  H    0.000175  -0.000097   0.000014   0.441119  -0.004553   0.475210
    37  H    0.000098   0.000232  -0.000010  -0.008535  -0.000006   0.001730
    38  H   -0.000006   0.000049  -0.000000   0.000098   0.000000  -0.000000
    39  H    0.000025  -0.000034  -0.000003  -0.001068  -0.000001   0.000005
    40  N    0.000017   0.000020  -0.000003  -0.000254  -0.000000  -0.000012
    41  O    0.000011   0.000079   0.000001  -0.001171   0.000000  -0.000053
    42  O    0.000001  -0.000002   0.000001  -0.000058   0.000000  -0.000001
              37         38         39         40         41         42
     1  C   -0.000000  -0.000000   0.000037  -0.000000  -0.000000   0.000000
     2  C    0.000000   0.000000  -0.000064   0.000000   0.000000  -0.000000
     3  C   -0.000001  -0.000014   0.000577   0.000000   0.000000   0.000000
     4  C    0.000002  -0.000002   0.000170   0.000002  -0.000001  -0.000000
     5  C    0.000002   0.000001   0.000108  -0.000000  -0.000000  -0.000000
     6  C    0.000000   0.000000  -0.000057  -0.000000   0.000000  -0.000000
     7  H    0.000000  -0.000000   0.000000  -0.000000  -0.000000   0.000000
     8  H    0.000000   0.000000  -0.000001   0.000000  -0.000000  -0.000000
     9  H   -0.000000  -0.000000  -0.000000   0.000000   0.000000  -0.000000
    10  H   -0.000001   0.000000   0.000013  -0.000000  -0.000000   0.000000
    11  C   -0.000005  -0.000003   0.000375   0.000000  -0.000000   0.000000
    12  C    0.000178   0.000009  -0.000457  -0.000003  -0.000007  -0.000000
    13  N   -0.000078  -0.000020   0.000338   0.000007   0.000001  -0.000001
    14  C   -0.000001   0.000001  -0.000309   0.000000  -0.000000  -0.000000
    15  H   -0.000000  -0.000001   0.000358  -0.000000   0.000000   0.000000
    16  H    0.000000  -0.000000   0.000006  -0.000000  -0.000000   0.000000
    17  H   -0.000000   0.000000  -0.000002   0.000000   0.000000   0.000000
    18  C    0.000000   0.000000  -0.000006   0.000000   0.000000  -0.000000
    19  H    0.000000   0.000000   0.000000  -0.000000  -0.000000   0.000000
    20  H   -0.000000  -0.000000   0.000000  -0.000000  -0.000000  -0.000000
    21  H   -0.000000  -0.000000   0.000000  -0.000000  -0.000000  -0.000000
    22  C    0.000134  -0.000006   0.000055   0.000019   0.000015  -0.000000
    23  C   -0.039580  -0.006633   0.044334   0.009311  -0.004223  -0.002766
    24  C    0.006120   0.011744  -0.090332  -0.002100   0.001465   0.001247
    25  O    0.000007  -0.000145   0.014660   0.000003  -0.000000  -0.000000
    26  C   -0.003404  -0.037603   0.437240   0.008926  -0.002193  -0.004124
    27  C    0.005866   0.430921  -0.061387  -0.067995   0.024029   0.041750
    28  C   -0.048848  -0.050128   0.017130   0.460676  -0.181341  -0.178564
    29  C    0.437206   0.007764  -0.008581  -0.068312   0.038425   0.023309
    30  C   -0.000313   0.000113  -0.000613  -0.000042  -0.000093   0.000014
    31  H    0.000098  -0.000006   0.000025   0.000017   0.000011   0.000001
    32  H    0.000232   0.000049  -0.000034   0.000020   0.000079  -0.000002
    33  H   -0.000010  -0.000000  -0.000003  -0.000003   0.000001   0.000001
    34  C   -0.008535   0.000098  -0.001068  -0.000254  -0.001171  -0.000058
    35  H   -0.000006   0.000000  -0.000001  -0.000000   0.000000   0.000000
    36  H    0.001730  -0.000000   0.000005  -0.000012  -0.000053  -0.000001
    37  H    0.458778  -0.000196   0.000035  -0.007219   0.029220   0.001680
    38  H   -0.000196   0.463929  -0.008805  -0.006031   0.001376   0.026124
    39  H    0.000035  -0.008805   0.529906  -0.000106   0.000002  -0.000132
    40  N   -0.007219  -0.006031  -0.000106   5.438964   0.411175   0.408124
    41  O    0.029220   0.001376   0.000002   0.411175   8.191456  -0.132785
    42  O    0.001680   0.026124  -0.000132   0.408124  -0.132785   8.193259
 Mulliken charges:
               1
     1  C   -0.145304
     2  C   -0.133787
     3  C   -0.217243
     4  C    0.164601
     5  C   -0.074562
     6  C   -0.199860
     7  H    0.152779
     8  H    0.154681
     9  H    0.155446
    10  H    0.167625
    11  C    0.204932
    12  C    0.133689
    13  N    0.033739
    14  C   -0.392384
    15  H    0.151318
    16  H    0.138997
    17  H    0.142602
    18  C   -0.384898
    19  H    0.148157
    20  H    0.152972
    21  H    0.149032
    22  C   -0.217222
    23  C   -0.022979
    24  C    0.231697
    25  O   -0.460632
    26  C   -0.253402
    27  C   -0.169325
    28  C    0.057379
    29  C   -0.181968
    30  C   -0.358901
    31  H    0.190191
    32  H    0.188154
    33  H    0.185443
    34  C   -0.152713
    35  H    0.168768
    36  H    0.169659
    37  H    0.166906
    38  H    0.167463
    39  H    0.126582
    40  N    0.414831
    41  O   -0.375388
    42  O   -0.377076
 Sum of Mulliken charges =  -0.00000
 Mulliken charges with hydrogens summed into heavy atoms:
               1
     1  C    0.007475
     2  C    0.020894
     3  C   -0.049619
     4  C    0.164601
     5  C   -0.074562
     6  C   -0.044414
    11  C    0.204932
    12  C    0.133689
    13  N    0.033739
    14  C    0.040532
    18  C    0.065263
    22  C   -0.048454
    23  C   -0.022979
    24  C    0.231697
    25  O   -0.460632
    26  C   -0.126820
    27  C   -0.001862
    28  C    0.057379
    29  C   -0.015061
    30  C    0.204887
    34  C    0.016946
    40  N    0.414831
    41  O   -0.375388
    42  O   -0.377076
 Electronic spatial extent (au):  <R**2>=           7975.5026
 Charge=             -0.0000 electrons
 Dipole moment (field-independent basis, Debye):
    X=             13.0112    Y=              1.7468    Z=             -5.3067  Tot=             14.1599
 Quadrupole moment (field-independent basis, Debye-Ang):
   XX=           -176.3555   YY=           -124.6017   ZZ=           -145.3857
   XY=             -6.9422   XZ=             -5.3692   YZ=             -4.9606
 Traceless Quadrupole moment (field-independent basis, Debye-Ang):
   XX=            -27.5746   YY=             24.1793   ZZ=              3.3953
   XY=             -6.9422   XZ=             -5.3692   YZ=             -4.9606
 Octapole moment (field-independent basis, Debye-Ang**2):
  XXX=            403.5410  YYY=              6.5043  ZZZ=            -32.1487  XYY=             30.2565
  XXY=             53.2446  XXZ=             56.3909  XZZ=             -8.8306  YZZ=            -11.5004
  YYZ=            -14.8698  XYZ=              0.0631
 Hexadecapole moment (field-independent basis, Debye-Ang**3):
 XXXX=          -9224.8416 YYYY=          -1922.1041 ZZZZ=           -959.8504 XXXY=           -270.6992
 XXXZ=           -135.5809 YYYX=            -75.0325 YYYZ=            -15.4756 ZZZX=             14.1626
 ZZZY=            -12.6802 XXYY=          -1601.1417 XXZZ=          -1476.8614 YYZZ=           -522.7167
 XXYZ=            -30.2533 YYXZ=             10.7884 ZZXY=             39.3367
 N-N= 2.064037980881D+03 E-N=-6.620298646700D+03  KE= 1.065328342109D+03
 No NMR shielding tensors so no spin-rotation constants.
 Leave Link  601 at Tue Mar 12 00:32:44 2024, MaxMem=  2684354560 cpu:              25.8 elap:               1.4
 (Enter /s/ls4/groups/g0130/bin/g16/l9999.exe)
 Electronic transition elements 
                 1             2             3             4             5 
      1  -0.106976D+04 -0.106972D+04 -0.106970D+04 -0.106970D+04 -0.106967D+04
      2  -0.100870D+01 -0.651388D+00 -0.161438D+01  0.205197D+01 -0.127913D+00
      3   0.107846D+00  0.255588D+00 -0.959484D+00 -0.115472D+01  0.362304D-01
      4   0.167925D+01  0.905322D+00  0.868516D+00 -0.100069D+01  0.560684D-01
      5   0.672901D-01  0.728162D-01  0.200432D+00 -0.263854D+00  0.198040D-01
      6  -0.749002D-02 -0.287289D-01  0.118473D+00  0.148405D+00 -0.582692D-02
      7  -0.111778D+00 -0.102354D+00 -0.107036D+00  0.128235D+00 -0.874160D-02
      8  -0.622264D+00 -0.688395D+00 -0.750246D+00  0.528825D+00  0.554673D+00
      9   0.996532D+00  0.284647D+00 -0.144283D+00  0.735682D+00 -0.335107D+00
     10  -0.724551D+00 -0.249009D+00  0.173720D+00  0.384375D+00 -0.242502D+00
     11   0.180157D-01  0.219121D+00 -0.344103D+00 -0.172801D+01  0.677763D-01
     12  -0.961716D-01 -0.101512D+00  0.112360D+00 -0.152928D-01 -0.189463D-01
     13   0.947451D-01  0.262863D+00 -0.158327D+00 -0.858557D+00  0.102411D+00
     14  -0.122027D+00 -0.303656D+00  0.378939D-01  0.660205D+00 -0.866200D-01
     15  -0.491577D-01 -0.244914D+00  0.205306D+00  0.149996D+01 -0.497717D-01
     16   0.335426D-01  0.172418D+00  0.247013D+00 -0.690094D+00  0.898701D-01
 1\1\GINC-N088\FOpt\RCAM-B3LYP TD-FC\def2TZVP\C19H18N2O3\ARTD\12-Mar-20
 24\0\\#p CAM-B3LYP/def2TZVP EmpiricalDispersion=GD3BJ SCRF(PCM,Solvent
 =acetonitrile) TD(Singlets,NStates=5, root=1) opt guess=(read) geom=(a
 llcheck) gfinput\\TITLE\\0,1\C,-2.0519239774,2.0113543909,0.0367132604
 \C,-1.0956575262,1.0850297406,-0.3558200722\C,0.1951485115,1.479649315
 ,-0.6807643287\C,0.4842872654,2.8300456351,-0.6062193901\C,-0.45858799
 19,3.7685196944,-0.2008096464\C,-1.7331487302,3.3638980362,0.123360371
 3\H,-3.0512302238,1.6785199456,0.2817779138\H,-1.3585994252,0.03741365
 03,-0.4142551494\H,-2.478134924,4.0796437484,0.4465102206\H,0.93567885
 73,0.7569590112,-0.9926972455\C,0.1941862203,5.1287154561,-0.140708365
 8\C,1.5462248539,4.8207737169,-0.762115379\N,1.6941260127,3.4673866552
 ,-0.8862733058\C,-0.5856506894,6.2008677457,-0.8970070068\H,-0.7161948
 736,5.9183170513,-1.9382421847\H,-0.0578123719,7.1540137382,-0.8621426
 525\H,-1.5643027792,6.3414420809,-0.4375351348\C,0.3888509114,5.556638
 0622,1.3261800093\H,0.9422585987,4.8026767325,1.8850490024\H,-0.582645
 5822,5.6945154248,1.8013724993\H,0.932435775,6.4998545133,1.3799968309
 \C,2.4894395557,5.7839975663,-1.1274643461\C,3.3582319958,4.6862716315
 ,-3.1638976361\C,2.0304366183,4.3038592684,-3.6776597301\O,1.022876952
 7,4.9851733891,-3.4206869618\C,1.9557116316,3.1460517908,-4.5235307973
 \C,3.0774029106,2.5423213754,-4.9977654319\C,4.3339947177,3.0404336069
 ,-4.6080665014\C,4.4820541321,4.0808108545,-3.7195903275\C,2.940385564
 2,2.7210294284,-0.8674106371\H,3.7723780116,3.409863086,-0.7852512953\
 H,3.0612753679,2.1217268032,-1.7682341371\H,2.9408240849,2.057131701,-
 0.0020888576\C,3.4432825135,5.6512864112,-2.1224547895\H,2.4492314226,
 6.7221320951,-0.5841403954\H,4.3052437026,6.3079890599,-2.1089305454\H
 ,5.4712638074,4.3856170793,-3.4133760611\H,3.0261650512,1.7056796766,-
 5.6763693504\H,0.9718530585,2.8287535214,-4.8393187205\N,5.5258236645,
 2.4064536081,-5.142311201\O,6.6119913267,2.868443512,-4.8408859648\O,5
 .3872559991,1.4385501902,-5.869706559\\Version=ES64L-G16RevA.03\State=
 1-A\HF=-1069.8288246\RMSD=4.616e-09\RMSF=4.888e-06\Dipole=-1.328876,0.
 2300738,2.808923\PG=C01 [X(C19H18N2O3)]\\@


 WHEN YOU REACH FOR THE STARS, YOU MAY NOT QUITE GET ONE,
 BUT YOU WON'T COME UP WITH A HANDFUL OF MUD, EITHER.

                                         -- LEO BURNETT (AD AGENCY HEAD)
 Job cpu time:      35 days  5 hours 52 minutes  8.5 seconds.
 Elapsed time:       1 days 11 hours 15 minutes 29.1 seconds.
 File lengths (MBytes):  RWF=   2619 Int=      0 D2E=      0 Chk=    181 Scr=      1
 Normal termination of Gaussian 16 at Tue Mar 12 00:32:45 2024.
