 Entering Gaussian System, Link 0=/s/ls4/groups/g0130/bin/g16/g16
 Input=mc1_gs_pbe0.gjf
 Output=mc1_gs_pbe0.log
 Initial command:
 /s/ls4/groups/g0130/bin/g16/l1.exe "/dev/shm/scratch_artd/Gau-36225.inp" -scrdir="/dev/shm/scratch_artd/"
 Entering Link 1 = /s/ls4/groups/g0130/bin/g16/l1.exe PID=     36226.
  
 Copyright (c) 1988,1990,1992,1993,1995,1998,2003,2009,2016,
            Gaussian, Inc.  All Rights Reserved.
  
 This is part of the Gaussian(R) 16 program.  It is based on
 the Gaussian(R) 09 system (copyright 2009, Gaussian, Inc.),
 the Gaussian(R) 03 system (copyright 2003, Gaussian, Inc.),
 the Gaussian(R) 98 system (copyright 1998, Gaussian, Inc.),
 the Gaussian(R) 94 system (copyright 1995, Gaussian, Inc.),
 the Gaussian 92(TM) system (copyright 1992, Gaussian, Inc.),
 the Gaussian 90(TM) system (copyright 1990, Gaussian, Inc.),
 the Gaussian 88(TM) system (copyright 1988, Gaussian, Inc.),
 the Gaussian 86(TM) system (copyright 1986, Carnegie Mellon
 University), and the Gaussian 82(TM) system (copyright 1983,
 Carnegie Mellon University). Gaussian is a federally registered
 trademark of Gaussian, Inc.
  
 This software contains proprietary and confidential information,
 including trade secrets, belonging to Gaussian, Inc.
  
 This software is provided under written license and may be
 used, copied, transmitted, or stored only in accord with that
 written license.
  
 The following legend is applicable only to US Government
 contracts under FAR:
  
                    RESTRICTED RIGHTS LEGEND
  
 Use, reproduction and disclosure by the US Government is
 subject to restrictions as set forth in subparagraphs (a)
 and (c) of the Commercial Computer Software - Restricted
 Rights clause in FAR 52.227-19.
  
 Gaussian, Inc.
 340 Quinnipiac St., Bldg. 40, Wallingford CT 06492
  
  
 ---------------------------------------------------------------
 Warning -- This program may not be used in any manner that
 competes with the business of Gaussian, Inc. or will provide
 assistance to any competitor of Gaussian, Inc.  The licensee
 of this program is prohibited from giving any competitor of
 Gaussian, Inc. access to this program.  By using this program,
 the user acknowledges that Gaussian, Inc. is engaged in the
 business of creating and licensing software in the field of
 computational chemistry and represents and warrants to the
 licensee that it is not a competitor of Gaussian, Inc. and that
 it will not use this program in any manner prohibited above.
 ---------------------------------------------------------------
  

 Cite this work as:
 Gaussian 16, Revision A.03,
 M. J. Frisch, G. W. Trucks, H. B. Schlegel, G. E. Scuseria, 
 M. A. Robb, J. R. Cheeseman, G. Scalmani, V. Barone, 
 G. A. Petersson, H. Nakatsuji, X. Li, M. Caricato, A. V. Marenich, 
 J. Bloino, B. G. Janesko, R. Gomperts, B. Mennucci, H. P. Hratchian, 
 J. V. Ortiz, A. F. Izmaylov, J. L. Sonnenberg, D. Williams-Young, 
 F. Ding, F. Lipparini, F. Egidi, J. Goings, B. Peng, A. Petrone, 
 T. Henderson, D. Ranasinghe, V. G. Zakrzewski, J. Gao, N. Rega, 
 G. Zheng, W. Liang, M. Hada, M. Ehara, K. Toyota, R. Fukuda, 
 J. Hasegawa, M. Ishida, T. Nakajima, Y. Honda, O. Kitao, H. Nakai, 
 T. Vreven, K. Throssell, J. A. Montgomery, Jr., J. E. Peralta, 
 F. Ogliaro, M. J. Bearpark, J. J. Heyd, E. N. Brothers, K. N. Kudin, 
 V. N. Staroverov, T. A. Keith, R. Kobayashi, J. Normand, 
 K. Raghavachari, A. P. Rendell, J. C. Burant, S. S. Iyengar, 
 J. Tomasi, M. Cossi, J. M. Millam, M. Klene, C. Adamo, R. Cammi, 
 J. W. Ochterski, R. L. Martin, K. Morokuma, O. Farkas, 
 J. B. Foresman, and D. J. Fox, Gaussian, Inc., Wallingford CT, 2016.
 
 ******************************************
 Gaussian 16:  ES64L-G16RevA.03 25-Dec-2016
                 8-Mar-2024 
 ******************************************
 %nprocs=24
 Will use up to   24 processors via shared memory.
 %mem=20GB
 %chk=mc1_gs_pbe0.chk
 ----------------------------------------------------------------------
 #P PBE1PBE/def2TZVP opt freq=(noraman) scrf=(pcm,solvent=acetone) Empi
 ricalDispersion=GD3BJ gfinput
 ----------------------------------------------------------------------
 1/18=20,19=15,26=3,38=1/1,3;
 2/9=110,12=2,17=6,18=5,40=1/2;
 3/5=44,7=101,11=2,24=10,25=1,30=1,70=2201,71=1,72=19,74=-13,124=41/1,2,3;
 4//1;
 5/5=2,38=5,53=19/2;
 6/7=2,8=2,9=2,10=2,28=1/1;
 7//1,2,3,16;
 1/18=20,19=15,26=3/3(2);
 2/9=110/2;
 99//99;
 2/9=110/2;
 3/5=44,7=101,11=2,25=1,30=1,70=2205,71=1,72=19,74=-13,124=41/1,2,3;
 4/5=5,16=3,69=1/1;
 5/5=2,38=5,53=19/2;
 7//1,2,3,16;
 1/18=20,19=15,26=3/3(-5);
 2/9=110/2;
 6/7=2,8=2,9=2,10=2,19=2,28=1/1;
 99/9=1/99;
 Leave Link    1 at Fri Mar  8 20:06:40 2024, MaxMem=  2684354560 cpu:               2.3 elap:               0.1
 (Enter /s/ls4/groups/g0130/bin/g16/l101.exe)
 -----
 TITLE
 -----
 Symbolic Z-matrix:
 Charge =  0 Multiplicity = 1
 6                    -2.72275   2.81916   0.9859 
 6                    -2.0745    1.57582   0.96729 
 6                    -0.72926   1.47035   0.58708 
 6                    -0.04153   2.61589   0.22256 
 6                    -0.70323   3.85601   0.25033 
 6                    -2.03472   3.9755    0.62812 
 1                    -3.76902   2.88065   1.27436 
 1                    -2.6269    0.68146   1.24451 
 1                    -2.53267   4.93916   0.63353 
 1                    -0.25385   0.49689   0.57043 
 6                     0.25527   4.93612  -0.21104 
 6                     1.51563   4.08691  -0.5979 
 7                     1.28181   2.76609  -0.21838 
 6                    -0.33038   5.68515  -1.42176 
 1                    -0.52077   5.00399  -2.26049 
 1                     0.34463   6.47008  -1.7807 
 1                    -1.27975   6.17211  -1.17302 
 6                     0.56616   5.90315   0.93957 
 1                     0.96988   5.37598   1.81252 
 1                    -0.33463   6.43494   1.26646 
 1                     1.30193   6.65829   0.64054 
 6                     2.52541   4.69202  -1.2396 
 6                     3.8208    3.78943  -3.1482 
 6                     2.66372   3.14931  -3.87931 
 8                     1.72101   2.58337  -3.34366 
 6                     2.74226   3.14728  -5.36267 
 6                     3.82088   3.62093  -6.00007 
 6                     4.97047   4.12319  -5.27523 
 6                     5.01298   4.13551  -3.92952 
 6                     2.11505   1.59967  -0.40397 
 1                     3.1507    1.86475  -0.63237 
 1                     1.73644   0.96635  -1.21299 
 1                     2.14886   0.9996    0.51354 
 6                     3.74008   4.25457  -1.883 
 1                     2.44965   5.77724  -1.33381 
 1                     4.61877   4.7202   -1.4343 
 1                     5.86328   4.54684  -3.38942 
 1                     3.84713   3.60978  -7.0868 
 1                     1.88764   2.73385  -5.88572 
 7                     6.08821   4.74626  -6.0015 
 8                     6.98945   5.28689  -5.34507 
 8                     6.04229   4.71907  -7.23901 
 
 ITRead=  0  0  0  0  0  0  0  0  0  0  0  0  0  0  0  0  0  0  0  0
 ITRead=  0  0  0  0  0  0  0  0  0  0  0  0  0  0  0  0  0  0  0  0
 ITRead=  0  0
 MicOpt= -1 -1 -1 -1 -1 -1 -1 -1 -1 -1 -1 -1 -1 -1 -1 -1 -1 -1 -1 -1
 MicOpt= -1 -1 -1 -1 -1 -1 -1 -1 -1 -1 -1 -1 -1 -1 -1 -1 -1 -1 -1 -1
 MicOpt= -1 -1
 NAtoms=     42 NQM=       42 NQMF=       0 NMMI=      0 NMMIF=      0
                NMic=       0 NMicF=      0.
                    Isotopes and Nuclear Properties:
 (Nuclear quadrupole moments (NQMom) in fm**2, nuclear magnetic moments (NMagM)
  in nuclear magnetons)

  Atom         1           2           3           4           5           6           7           8           9          10
 IAtWgt=          12          12          12          12          12          12           1           1           1           1
 AtmWgt=  12.0000000  12.0000000  12.0000000  12.0000000  12.0000000  12.0000000   1.0078250   1.0078250   1.0078250   1.0078250
 NucSpn=           0           0           0           0           0           0           1           1           1           1
 AtZEff=  -0.0000000  -0.0000000  -0.0000000  -0.0000000  -0.0000000  -0.0000000  -0.0000000  -0.0000000  -0.0000000  -0.0000000
 NQMom=    0.0000000   0.0000000   0.0000000   0.0000000   0.0000000   0.0000000   0.0000000   0.0000000   0.0000000   0.0000000
 NMagM=    0.0000000   0.0000000   0.0000000   0.0000000   0.0000000   0.0000000   2.7928460   2.7928460   2.7928460   2.7928460
 AtZNuc=   6.0000000   6.0000000   6.0000000   6.0000000   6.0000000   6.0000000   1.0000000   1.0000000   1.0000000   1.0000000

  Atom        11          12          13          14          15          16          17          18          19          20
 IAtWgt=          12          12          14          12           1           1           1          12           1           1
 AtmWgt=  12.0000000  12.0000000  14.0030740  12.0000000   1.0078250   1.0078250   1.0078250  12.0000000   1.0078250   1.0078250
 NucSpn=           0           0           2           0           1           1           1           0           1           1
 AtZEff=  -0.0000000  -0.0000000  -0.0000000  -0.0000000  -0.0000000  -0.0000000  -0.0000000  -0.0000000  -0.0000000  -0.0000000
 NQMom=    0.0000000   0.0000000   2.0440000   0.0000000   0.0000000   0.0000000   0.0000000   0.0000000   0.0000000   0.0000000
 NMagM=    0.0000000   0.0000000   0.4037610   0.0000000   2.7928460   2.7928460   2.7928460   0.0000000   2.7928460   2.7928460
 AtZNuc=   6.0000000   6.0000000   7.0000000   6.0000000   1.0000000   1.0000000   1.0000000   6.0000000   1.0000000   1.0000000

  Atom        21          22          23          24          25          26          27          28          29          30
 IAtWgt=           1          12          12          12          16          12          12          12          12          12
 AtmWgt=   1.0078250  12.0000000  12.0000000  12.0000000  15.9949146  12.0000000  12.0000000  12.0000000  12.0000000  12.0000000
 NucSpn=           1           0           0           0           0           0           0           0           0           0
 AtZEff=  -0.0000000  -0.0000000  -0.0000000  -0.0000000  -0.0000000  -0.0000000  -0.0000000  -0.0000000  -0.0000000  -0.0000000
 NQMom=    0.0000000   0.0000000   0.0000000   0.0000000   0.0000000   0.0000000   0.0000000   0.0000000   0.0000000   0.0000000
 NMagM=    2.7928460   0.0000000   0.0000000   0.0000000   0.0000000   0.0000000   0.0000000   0.0000000   0.0000000   0.0000000
 AtZNuc=   1.0000000   6.0000000   6.0000000   6.0000000   8.0000000   6.0000000   6.0000000   6.0000000   6.0000000   6.0000000

  Atom        31          32          33          34          35          36          37          38          39          40
 IAtWgt=           1           1           1          12           1           1           1           1           1          14
 AtmWgt=   1.0078250   1.0078250   1.0078250  12.0000000   1.0078250   1.0078250   1.0078250   1.0078250   1.0078250  14.0030740
 NucSpn=           1           1           1           0           1           1           1           1           1           2
 AtZEff=  -0.0000000  -0.0000000  -0.0000000  -0.0000000  -0.0000000  -0.0000000  -0.0000000  -0.0000000  -0.0000000  -0.0000000
 NQMom=    0.0000000   0.0000000   0.0000000   0.0000000   0.0000000   0.0000000   0.0000000   0.0000000   0.0000000   2.0440000
 NMagM=    2.7928460   2.7928460   2.7928460   0.0000000   2.7928460   2.7928460   2.7928460   2.7928460   2.7928460   0.4037610
 AtZNuc=   1.0000000   1.0000000   1.0000000   6.0000000   1.0000000   1.0000000   1.0000000   1.0000000   1.0000000   7.0000000

  Atom        41          42
 IAtWgt=          16          16
 AtmWgt=  15.9949146  15.9949146
 NucSpn=           0           0
 AtZEff=  -0.0000000  -0.0000000
 NQMom=    0.0000000   0.0000000
 NMagM=    0.0000000   0.0000000
 AtZNuc=   8.0000000   8.0000000
 Leave Link  101 at Fri Mar  8 20:06:41 2024, MaxMem=  2684354560 cpu:               7.0 elap:               0.3
 (Enter /s/ls4/groups/g0130/bin/g16/l103.exe)

 GradGradGradGradGradGradGradGradGradGradGradGradGradGradGradGradGradGrad
 Berny optimization.
 Initialization pass.
                           ----------------------------
                           !    Initial Parameters    !
                           ! (Angstroms and Degrees)  !
 --------------------------                            --------------------------
 ! Name  Definition              Value          Derivative Info.                !
 --------------------------------------------------------------------------------
 ! R1    R(1,2)                  1.4023         estimate D2E/DX2                !
 ! R2    R(1,6)                  1.3923         estimate D2E/DX2                !
 ! R3    R(1,7)                  1.087          estimate D2E/DX2                !
 ! R4    R(2,3)                  1.4019         estimate D2E/DX2                !
 ! R5    R(2,8)                  1.0871         estimate D2E/DX2                !
 ! R6    R(3,4)                  1.385          estimate D2E/DX2                !
 ! R7    R(3,10)                 1.0835         estimate D2E/DX2                !
 ! R8    R(4,5)                  1.4059         estimate D2E/DX2                !
 ! R9    R(4,13)                 1.4029         estimate D2E/DX2                !
 ! R10   R(5,6)                  1.3892         estimate D2E/DX2                !
 ! R11   R(5,11)                 1.516          estimate D2E/DX2                !
 ! R12   R(6,9)                  1.0847         estimate D2E/DX2                !
 ! R13   R(11,12)                1.5682         estimate D2E/DX2                !
 ! R14   R(11,14)                1.5394         estimate D2E/DX2                !
 ! R15   R(11,18)                1.5348         estimate D2E/DX2                !
 ! R16   R(12,13)                1.394          estimate D2E/DX2                !
 ! R17   R(12,22)                1.3407         estimate D2E/DX2                !
 ! R18   R(13,30)                1.4454         estimate D2E/DX2                !
 ! R19   R(14,15)                1.0971         estimate D2E/DX2                !
 ! R20   R(14,16)                1.0957         estimate D2E/DX2                !
 ! R21   R(14,17)                1.0956         estimate D2E/DX2                !
 ! R22   R(18,19)                1.0968         estimate D2E/DX2                !
 ! R23   R(18,20)                1.0959         estimate D2E/DX2                !
 ! R24   R(18,21)                1.0959         estimate D2E/DX2                !
 ! R25   R(22,34)                1.4425         estimate D2E/DX2                !
 ! R26   R(22,35)                1.0919         estimate D2E/DX2                !
 ! R27   R(23,24)                1.511          estimate D2E/DX2                !
 ! R28   R(23,29)                1.4668         estimate D2E/DX2                !
 ! R29   R(23,34)                1.3504         estimate D2E/DX2                !
 ! R30   R(24,25)                1.2231         estimate D2E/DX2                !
 ! R31   R(24,26)                1.4854         estimate D2E/DX2                !
 ! R32   R(26,27)                1.3394         estimate D2E/DX2                !
 ! R33   R(26,39)                1.0839         estimate D2E/DX2                !
 ! R34   R(27,28)                1.4489         estimate D2E/DX2                !
 ! R35   R(27,38)                1.0871         estimate D2E/DX2                !
 ! R36   R(28,29)                1.3464         estimate D2E/DX2                !
 ! R37   R(28,40)                1.4714         estimate D2E/DX2                !
 ! R38   R(29,37)                1.0881         estimate D2E/DX2                !
 ! R39   R(30,31)                1.0932         estimate D2E/DX2                !
 ! R40   R(30,32)                1.095          estimate D2E/DX2                !
 ! R41   R(30,33)                1.0968         estimate D2E/DX2                !
 ! R42   R(34,36)                1.091          estimate D2E/DX2                !
 ! R43   R(40,41)                1.2391         estimate D2E/DX2                !
 ! R44   R(40,42)                1.2387         estimate D2E/DX2                !
 ! A1    A(2,1,6)              120.2996         estimate D2E/DX2                !
 ! A2    A(2,1,7)              119.908          estimate D2E/DX2                !
 ! A3    A(6,1,7)              119.7911         estimate D2E/DX2                !
 ! A4    A(1,2,3)              120.9233         estimate D2E/DX2                !
 ! A5    A(1,2,8)              119.4153         estimate D2E/DX2                !
 ! A6    A(3,2,8)              119.6597         estimate D2E/DX2                !
 ! A7    A(2,3,4)              119.0552         estimate D2E/DX2                !
 ! A8    A(2,3,10)             119.5253         estimate D2E/DX2                !
 ! A9    A(4,3,10)             121.4136         estimate D2E/DX2                !
 ! A10   A(3,4,5)              119.3857         estimate D2E/DX2                !
 ! A11   A(3,4,13)             129.7677         estimate D2E/DX2                !
 ! A12   A(5,4,13)             110.8383         estimate D2E/DX2                !
 ! A13   A(4,5,6)              122.1648         estimate D2E/DX2                !
 ! A14   A(4,5,11)             108.9582         estimate D2E/DX2                !
 ! A15   A(6,5,11)             128.8642         estimate D2E/DX2                !
 ! A16   A(1,6,5)              118.1697         estimate D2E/DX2                !
 ! A17   A(1,6,9)              120.6437         estimate D2E/DX2                !
 ! A18   A(5,6,9)              121.182          estimate D2E/DX2                !
 ! A19   A(5,11,12)            101.385          estimate D2E/DX2                !
 ! A20   A(5,11,14)            110.2113         estimate D2E/DX2                !
 ! A21   A(5,11,18)            110.4152         estimate D2E/DX2                !
 ! A22   A(12,11,14)           112.0375         estimate D2E/DX2                !
 ! A23   A(12,11,18)           111.3044         estimate D2E/DX2                !
 ! A24   A(14,11,18)           111.1055         estimate D2E/DX2                !
 ! A25   A(11,12,13)           108.1264         estimate D2E/DX2                !
 ! A26   A(11,12,22)           118.618          estimate D2E/DX2                !
 ! A27   A(13,12,22)           133.1772         estimate D2E/DX2                !
 ! A28   A(4,13,12)            110.1955         estimate D2E/DX2                !
 ! A29   A(4,13,30)            119.8493         estimate D2E/DX2                !
 ! A30   A(12,13,30)           129.2683         estimate D2E/DX2                !
 ! A31   A(11,14,15)           111.418          estimate D2E/DX2                !
 ! A32   A(11,14,16)           111.8283         estimate D2E/DX2                !
 ! A33   A(11,14,17)           111.5532         estimate D2E/DX2                !
 ! A34   A(15,14,16)           107.5316         estimate D2E/DX2                !
 ! A35   A(15,14,17)           107.4063         estimate D2E/DX2                !
 ! A36   A(16,14,17)           106.8459         estimate D2E/DX2                !
 ! A37   A(11,18,19)           111.6166         estimate D2E/DX2                !
 ! A38   A(11,18,20)           111.275          estimate D2E/DX2                !
 ! A39   A(11,18,21)           111.4434         estimate D2E/DX2                !
 ! A40   A(19,18,20)           107.3601         estimate D2E/DX2                !
 ! A41   A(19,18,21)           107.532          estimate D2E/DX2                !
 ! A42   A(20,18,21)           107.3893         estimate D2E/DX2                !
 ! A43   A(12,22,34)           135.3013         estimate D2E/DX2                !
 ! A44   A(12,22,35)           115.9502         estimate D2E/DX2                !
 ! A45   A(34,22,35)           108.7439         estimate D2E/DX2                !
 ! A46   A(24,23,29)           117.6854         estimate D2E/DX2                !
 ! A47   A(24,23,34)           123.6058         estimate D2E/DX2                !
 ! A48   A(29,23,34)           117.799          estimate D2E/DX2                !
 ! A49   A(23,24,25)           125.0544         estimate D2E/DX2                !
 ! A50   A(23,24,26)           116.3129         estimate D2E/DX2                !
 ! A51   A(25,24,26)           118.5197         estimate D2E/DX2                !
 ! A52   A(24,26,27)           121.1518         estimate D2E/DX2                !
 ! A53   A(24,26,39)           116.1493         estimate D2E/DX2                !
 ! A54   A(27,26,39)           122.6956         estimate D2E/DX2                !
 ! A55   A(26,27,28)           121.5648         estimate D2E/DX2                !
 ! A56   A(26,27,38)           119.4413         estimate D2E/DX2                !
 ! A57   A(28,27,38)           118.98           estimate D2E/DX2                !
 ! A58   A(27,28,29)           121.8861         estimate D2E/DX2                !
 ! A59   A(27,28,40)           120.1715         estimate D2E/DX2                !
 ! A60   A(29,28,40)           117.7403         estimate D2E/DX2                !
 ! A61   A(23,29,28)           120.3021         estimate D2E/DX2                !
 ! A62   A(23,29,37)           117.3836         estimate D2E/DX2                !
 ! A63   A(28,29,37)           121.6174         estimate D2E/DX2                !
 ! A64   A(13,30,31)           112.1654         estimate D2E/DX2                !
 ! A65   A(13,30,32)           111.2407         estimate D2E/DX2                !
 ! A66   A(13,30,33)           110.6006         estimate D2E/DX2                !
 ! A67   A(31,30,32)           108.268          estimate D2E/DX2                !
 ! A68   A(31,30,33)           106.1549         estimate D2E/DX2                !
 ! A69   A(32,30,33)           108.1967         estimate D2E/DX2                !
 ! A70   A(22,34,23)           124.9376         estimate D2E/DX2                !
 ! A71   A(22,34,36)           111.4282         estimate D2E/DX2                !
 ! A72   A(23,34,36)           118.9598         estimate D2E/DX2                !
 ! A73   A(28,40,41)           118.4099         estimate D2E/DX2                !
 ! A74   A(28,40,42)           117.1084         estimate D2E/DX2                !
 ! A75   A(41,40,42)           124.4582         estimate D2E/DX2                !
 ! D1    D(6,1,2,3)             -0.1696         estimate D2E/DX2                !
 ! D2    D(6,1,2,8)           -179.6898         estimate D2E/DX2                !
 ! D3    D(7,1,2,3)            179.4166         estimate D2E/DX2                !
 ! D4    D(7,1,2,8)             -0.1036         estimate D2E/DX2                !
 ! D5    D(2,1,6,5)              0.322          estimate D2E/DX2                !
 ! D6    D(2,1,6,9)            179.5492         estimate D2E/DX2                !
 ! D7    D(7,1,6,5)           -179.2647         estimate D2E/DX2                !
 ! D8    D(7,1,6,9)             -0.0375         estimate D2E/DX2                !
 ! D9    D(1,2,3,4)             -0.2061         estimate D2E/DX2                !
 ! D10   D(1,2,3,10)          -179.3347         estimate D2E/DX2                !
 ! D11   D(8,2,3,4)            179.3129         estimate D2E/DX2                !
 ! D12   D(8,2,3,10)             0.1844         estimate D2E/DX2                !
 ! D13   D(2,3,4,5)              0.4137         estimate D2E/DX2                !
 ! D14   D(2,3,4,13)          -178.4392         estimate D2E/DX2                !
 ! D15   D(10,3,4,5)           179.5252         estimate D2E/DX2                !
 ! D16   D(10,3,4,13)            0.6723         estimate D2E/DX2                !
 ! D17   D(3,4,5,6)             -0.2626         estimate D2E/DX2                !
 ! D18   D(3,4,5,11)          -179.0688         estimate D2E/DX2                !
 ! D19   D(13,4,5,6)           178.794          estimate D2E/DX2                !
 ! D20   D(13,4,5,11)           -0.0123         estimate D2E/DX2                !
 ! D21   D(3,4,13,12)          174.2955         estimate D2E/DX2                !
 ! D22   D(3,4,13,30)            2.9347         estimate D2E/DX2                !
 ! D23   D(5,4,13,12)           -4.635          estimate D2E/DX2                !
 ! D24   D(5,4,13,30)         -175.9958         estimate D2E/DX2                !
 ! D25   D(4,5,6,1)             -0.1099         estimate D2E/DX2                !
 ! D26   D(4,5,6,9)           -179.3328         estimate D2E/DX2                !
 ! D27   D(11,5,6,1)           178.4401         estimate D2E/DX2                !
 ! D28   D(11,5,6,9)            -0.7828         estimate D2E/DX2                !
 ! D29   D(4,5,11,12)            3.961          estimate D2E/DX2                !
 ! D30   D(4,5,11,14)          122.7765         estimate D2E/DX2                !
 ! D31   D(4,5,11,18)         -114.0993         estimate D2E/DX2                !
 ! D32   D(6,5,11,12)         -174.7411         estimate D2E/DX2                !
 ! D33   D(6,5,11,14)          -55.9257         estimate D2E/DX2                !
 ! D34   D(6,5,11,18)           67.1985         estimate D2E/DX2                !
 ! D35   D(5,11,12,13)          -6.6576         estimate D2E/DX2                !
 ! D36   D(5,11,12,22)         170.5403         estimate D2E/DX2                !
 ! D37   D(14,11,12,13)       -124.1548         estimate D2E/DX2                !
 ! D38   D(14,11,12,22)         53.0432         estimate D2E/DX2                !
 ! D39   D(18,11,12,13)        110.7583         estimate D2E/DX2                !
 ! D40   D(18,11,12,22)        -72.0438         estimate D2E/DX2                !
 ! D41   D(5,11,14,15)         -59.3344         estimate D2E/DX2                !
 ! D42   D(5,11,14,16)        -179.7114         estimate D2E/DX2                !
 ! D43   D(5,11,14,17)          60.6941         estimate D2E/DX2                !
 ! D44   D(12,11,14,15)         52.749          estimate D2E/DX2                !
 ! D45   D(12,11,14,16)        -67.628          estimate D2E/DX2                !
 ! D46   D(12,11,14,17)        172.7775         estimate D2E/DX2                !
 ! D47   D(18,11,14,15)        177.9455         estimate D2E/DX2                !
 ! D48   D(18,11,14,16)         57.5685         estimate D2E/DX2                !
 ! D49   D(18,11,14,17)        -62.026          estimate D2E/DX2                !
 ! D50   D(5,11,18,19)          56.5346         estimate D2E/DX2                !
 ! D51   D(5,11,18,20)         -63.3808         estimate D2E/DX2                !
 ! D52   D(5,11,18,21)         176.7839         estimate D2E/DX2                !
 ! D53   D(12,11,18,19)        -55.2567         estimate D2E/DX2                !
 ! D54   D(12,11,18,20)       -175.172          estimate D2E/DX2                !
 ! D55   D(12,11,18,21)         64.9927         estimate D2E/DX2                !
 ! D56   D(14,11,18,19)        179.1369         estimate D2E/DX2                !
 ! D57   D(14,11,18,20)         59.2215         estimate D2E/DX2                !
 ! D58   D(14,11,18,21)        -60.6138         estimate D2E/DX2                !
 ! D59   D(11,12,13,4)           7.1262         estimate D2E/DX2                !
 ! D60   D(11,12,13,30)        177.4381         estimate D2E/DX2                !
 ! D61   D(22,12,13,4)        -169.5002         estimate D2E/DX2                !
 ! D62   D(22,12,13,30)          0.8118         estimate D2E/DX2                !
 ! D63   D(11,12,22,34)       -171.43           estimate D2E/DX2                !
 ! D64   D(11,12,22,35)          7.6776         estimate D2E/DX2                !
 ! D65   D(13,12,22,34)          4.9172         estimate D2E/DX2                !
 ! D66   D(13,12,22,35)       -175.9752         estimate D2E/DX2                !
 ! D67   D(4,13,30,31)        -173.14           estimate D2E/DX2                !
 ! D68   D(4,13,30,32)          65.4274         estimate D2E/DX2                !
 ! D69   D(4,13,30,33)         -54.8397         estimate D2E/DX2                !
 ! D70   D(12,13,30,31)         17.3518         estimate D2E/DX2                !
 ! D71   D(12,13,30,32)       -104.0808         estimate D2E/DX2                !
 ! D72   D(12,13,30,33)        135.6521         estimate D2E/DX2                !
 ! D73   D(12,22,34,23)         83.1178         estimate D2E/DX2                !
 ! D74   D(12,22,34,36)       -121.5595         estimate D2E/DX2                !
 ! D75   D(35,22,34,23)        -96.0348         estimate D2E/DX2                !
 ! D76   D(35,22,34,36)         59.2879         estimate D2E/DX2                !
 ! D77   D(29,23,24,25)        165.5846         estimate D2E/DX2                !
 ! D78   D(29,23,24,26)        -10.4782         estimate D2E/DX2                !
 ! D79   D(34,23,24,25)        -25.5917         estimate D2E/DX2                !
 ! D80   D(34,23,24,26)        158.3455         estimate D2E/DX2                !
 ! D81   D(24,23,29,28)         12.6137         estimate D2E/DX2                !
 ! D82   D(24,23,29,37)       -176.7978         estimate D2E/DX2                !
 ! D83   D(34,23,29,28)       -156.8712         estimate D2E/DX2                !
 ! D84   D(34,23,29,37)         13.7173         estimate D2E/DX2                !
 ! D85   D(24,23,34,22)        -25.254          estimate D2E/DX2                !
 ! D86   D(24,23,34,36)       -178.8825         estimate D2E/DX2                !
 ! D87   D(29,23,34,22)        143.558          estimate D2E/DX2                !
 ! D88   D(29,23,34,36)        -10.0706         estimate D2E/DX2                !
 ! D89   D(23,24,26,27)          3.7014         estimate D2E/DX2                !
 ! D90   D(23,24,26,39)       -176.9427         estimate D2E/DX2                !
 ! D91   D(25,24,26,27)       -172.6308         estimate D2E/DX2                !
 ! D92   D(25,24,26,39)          6.7251         estimate D2E/DX2                !
 ! D93   D(24,26,27,28)          1.6158         estimate D2E/DX2                !
 ! D94   D(24,26,27,38)       -179.7495         estimate D2E/DX2                !
 ! D95   D(39,26,27,28)       -177.6972         estimate D2E/DX2                !
 ! D96   D(39,26,27,38)          0.9376         estimate D2E/DX2                !
 ! D97   D(26,27,28,29)          0.1769         estimate D2E/DX2                !
 ! D98   D(26,27,28,40)       -174.5408         estimate D2E/DX2                !
 ! D99   D(38,27,28,29)       -178.464          estimate D2E/DX2                !
 ! D100  D(38,27,28,40)          6.8183         estimate D2E/DX2                !
 ! D101  D(27,28,29,23)         -7.5613         estimate D2E/DX2                !
 ! D102  D(27,28,29,37)       -177.7439         estimate D2E/DX2                !
 ! D103  D(40,28,29,23)        167.2793         estimate D2E/DX2                !
 ! D104  D(40,28,29,37)         -2.9032         estimate D2E/DX2                !
 ! D105  D(27,28,40,41)        172.6987         estimate D2E/DX2                !
 ! D106  D(27,28,40,42)         -5.6171         estimate D2E/DX2                !
 ! D107  D(29,28,40,41)         -2.2342         estimate D2E/DX2                !
 ! D108  D(29,28,40,42)        179.4499         estimate D2E/DX2                !
 --------------------------------------------------------------------------------
 Trust Radius=3.00D-01 FncErr=1.00D-07 GrdErr=1.00D-06 EigMax=2.50D+02 EigMin=1.00D-04
 Number of steps in this run=    237 maximum allowed number of steps=    252.
 GradGradGradGradGradGradGradGradGradGradGradGradGradGradGradGradGradGrad

 Leave Link  103 at Fri Mar  8 20:06:41 2024, MaxMem=  2684354560 cpu:               0.4 elap:               0.0
 (Enter /s/ls4/groups/g0130/bin/g16/l202.exe)
                          Input orientation:                          
 ---------------------------------------------------------------------
 Center     Atomic      Atomic             Coordinates (Angstroms)
 Number     Number       Type             X           Y           Z
 ---------------------------------------------------------------------
      1          6           0       -2.722750    2.819160    0.985900
      2          6           0       -2.074500    1.575820    0.967290
      3          6           0       -0.729260    1.470350    0.587080
      4          6           0       -0.041530    2.615890    0.222560
      5          6           0       -0.703230    3.856010    0.250330
      6          6           0       -2.034720    3.975500    0.628120
      7          1           0       -3.769020    2.880650    1.274360
      8          1           0       -2.626900    0.681460    1.244510
      9          1           0       -2.532670    4.939160    0.633530
     10          1           0       -0.253850    0.496890    0.570430
     11          6           0        0.255270    4.936120   -0.211040
     12          6           0        1.515630    4.086910   -0.597900
     13          7           0        1.281810    2.766090   -0.218380
     14          6           0       -0.330380    5.685150   -1.421760
     15          1           0       -0.520770    5.003990   -2.260490
     16          1           0        0.344630    6.470080   -1.780700
     17          1           0       -1.279750    6.172110   -1.173020
     18          6           0        0.566160    5.903150    0.939570
     19          1           0        0.969880    5.375980    1.812520
     20          1           0       -0.334630    6.434940    1.266460
     21          1           0        1.301930    6.658290    0.640540
     22          6           0        2.525410    4.692020   -1.239600
     23          6           0        3.820800    3.789430   -3.148200
     24          6           0        2.663720    3.149310   -3.879310
     25          8           0        1.721010    2.583370   -3.343660
     26          6           0        2.742260    3.147280   -5.362670
     27          6           0        3.820880    3.620930   -6.000070
     28          6           0        4.970470    4.123190   -5.275230
     29          6           0        5.012980    4.135510   -3.929520
     30          6           0        2.115050    1.599670   -0.403970
     31          1           0        3.150700    1.864750   -0.632370
     32          1           0        1.736440    0.966350   -1.212990
     33          1           0        2.148860    0.999600    0.513540
     34          6           0        3.740080    4.254570   -1.883000
     35          1           0        2.449650    5.777240   -1.333810
     36          1           0        4.618770    4.720200   -1.434300
     37          1           0        5.863280    4.546840   -3.389420
     38          1           0        3.847130    3.609780   -7.086800
     39          1           0        1.887640    2.733850   -5.885720
     40          7           0        6.088210    4.746260   -6.001500
     41          8           0        6.989450    5.286890   -5.345070
     42          8           0        6.042290    4.719070   -7.239010
 ---------------------------------------------------------------------
                    Distance matrix (angstroms):
                    1          2          3          4          5
     1  C    0.000000
     2  C    1.402308   0.000000
     3  C    2.439743   1.401911   0.000000
     4  C    2.795165   2.401944   1.384958   0.000000
     5  C    2.386332   2.755663   2.409451   1.405886   0.000000
     6  C    1.392305   2.423857   2.825188   2.446594   1.389197
     7  H    1.087047   2.160618   3.420737   3.882082   3.376245
     8  H    2.155418   1.087141   2.157684   3.386818   3.842742
     9  H    2.157474   3.410773   3.909871   3.431072   2.160302
    10  H    3.414824   2.153220   1.083474   2.157836   3.404129
    11  C    3.844839   4.255339   3.690238   2.378984   1.515989
    12  C    4.698880   4.652357   3.645558   2.293862   2.386661
    13  N    4.182058   3.753315   2.524304   1.402932   2.312574
    14  C    4.442315   5.063211   4.686052   3.493935   2.506124
    15  H    4.490128   4.958325   4.542987   3.478251   2.766833
    16  H    5.512904   6.112072   5.635328   4.360843   3.472241
    17  H    4.240927   5.132099   5.050499   4.015910   2.778960
    18  C    4.508888   5.069481   4.631639   3.418987   2.505431
    19  H    4.566853   4.942052   4.432011   3.342008   2.747734
    20  H    4.342315   5.169884   5.026375   3.969985   2.796295
    21  H    5.572813   6.110528   5.571653   4.280256   3.467810
    22  C    6.000303   5.978314   4.930395   3.610735   3.652796
    23  C    7.800657   7.522758   6.327203   5.258974   5.658735
    24  C    7.265902   6.958170   5.854900   4.942495   5.374914
    25  O    6.208679   5.831410   4.763754   3.978131   4.518110
    26  C    8.383218   8.107963   7.089645   6.263119   6.624158
    27  C    9.605504   9.353186   8.289711   7.392526   7.719478
    28  C   10.004393   9.751397   8.595997   7.590638   7.924271
    29  C    9.259355   8.986831   7.776636   6.715436   7.086912
    30  C    5.179112   4.408316   3.014797   2.464971   3.669044
    31  H    6.166613   5.472212   4.086159   3.389019   4.426856
    32  H    5.305883   4.432645   3.094179   2.818326   4.055050
    33  H    5.221734   4.286571   2.917291   2.737676   4.045093
    34  C    7.215203   7.007795   5.816199   4.628091   4.944992
    35  H    6.394139   6.589000   5.687230   4.315368   4.017621
    36  H    7.960480   7.775257   6.576392   5.375100   5.648760
    37  H    9.790210   9.529755   8.290894   7.186219   7.539501
    38  H   10.438242  10.201522   9.187434   8.338839   8.637122
    39  H    8.275393   8.000208   7.095191   6.406770   6.754477
    40  N   11.409228  11.191316  10.030896   8.991725   9.273704
    41  O   11.853173  11.652172  10.456331   9.357747   9.619420
    42  O   12.169007  11.962678  10.846924   9.854504  10.116181
                    6          7          8          9         10
     6  C    0.000000
     7  H    2.150377   0.000000
     8  H    3.403133   2.478259   0.000000
     9  H    1.084723   2.485294   4.302346   0.000000
    10  H    3.908395   4.305142   2.473826   4.993072   0.000000
    11  C    2.621266   4.756709   5.341129   2.913060   4.536151
    12  C    3.757728   5.734801   5.670284   4.316420   4.169448
    13  N    3.630235   5.268043   4.665163   4.471939   2.851270
    14  C    3.166968   5.192160   6.117182   3.103353   5.558122
    15  H    3.419635   5.249273   5.950216   3.525237   5.329100
    16  H    4.205550   6.256158   7.175654   4.055993   6.447092
    17  H    2.939248   4.797900   6.148699   2.520634   6.024966
    18  C    3.252293   5.295411   6.128186   3.259706   5.480541
    19  H    3.520194   5.382700   5.941210   3.721382   5.181295
    20  H    3.057226   4.942477   6.193344   2.733009   5.979249
    21  H    4.281442   6.355063   7.177951   4.202334   6.355172
    22  C    4.979615   7.015761   6.985821   5.399432   5.347860
    23  C    6.970103   8.831211   8.398108   7.482643   6.424313
    24  C    6.563144   8.246977   7.767527   7.111382   5.945396
    25  O    5.640795   7.180175   6.600976   6.281845   4.855262
    26  C    7.706818   9.301507   8.863576   8.184750   7.155621
    27  C    8.851366  10.539067  10.134016   9.279546   8.338736
    28  C    9.162098  10.991802  10.586432   9.585216   8.638016
    29  C    8.394508  10.284871   9.852351   8.854610   7.824871
    30  C    4.891868   6.251398   5.103595   5.816348   2.788775
    31  H    5.738700   7.249151   6.188983   6.584466   3.861182
    32  H    5.163944   6.337314   5.015895   6.117038   2.713344
    33  H    5.135314   6.256077   4.841840   6.119743   2.455396
    34  C    6.303326   8.260942   7.942724   6.793304   6.007575
    35  H    5.215842   7.339253   7.641078   5.421837   6.230340
    36  H    7.005504   9.004210   8.717062   7.447614   6.752608
    37  H    8.879497  10.830893  10.416219   9.318263   8.336773
    38  H    9.708239  11.333418  10.949833  10.103098   9.227204
    39  H    7.704331   9.126122   8.685249   8.179435   7.160436
    40  N   10.513226  12.392886  12.040781  10.880276  10.073189
    41  O   10.901119  12.858908  12.534223  11.248793  10.507266
    42  O   11.299678  13.119415  12.783867  11.642820  10.883728
                   11         12         13         14         15
    11  C    0.000000
    12  C    1.568224   0.000000
    13  N    2.400598   1.394013   0.000000
    14  C    1.539440   2.576988   3.545164   0.000000
    15  H    2.192508   2.784271   3.525295   1.097130   0.000000
    16  H    2.196554   2.906846   4.127795   1.095715   1.768767
    17  H    2.193026   3.534540   4.367368   1.095584   1.767242
    18  C    1.534830   2.562037   3.419671   2.535190   3.497183
    19  H    2.190648   2.787413   3.321653   3.499547   4.353140
    20  H    2.185738   3.523144   4.275288   2.790830   3.810727
    21  H    2.187820   2.862062   3.985896   2.804375   3.804592
    22  C    2.504208   1.340743   2.509709   3.029031   3.227810
    23  C    4.759707   3.450555   4.009681   4.879205   4.594825
    24  C    4.738093   3.600674   3.931786   4.629759   4.025095
    25  O    4.182958   3.137198   3.161275   4.186041   3.472497
    26  C    5.993693   5.009048   5.361151   5.604701   4.870139
    27  C    6.925039   5.891923   6.372250   6.515741   5.894679
    28  C    6.967064   5.815037   6.404660   6.737059   6.325993
    29  C    6.091295   4.830477   5.437785   6.102601   5.844853
    30  C    3.824644   2.565790   1.445430   4.869001   4.688668
    31  H    4.241974   2.759101   2.115786   5.228433   5.097577
    32  H    4.353946   3.188258   2.105944   5.155813   4.742867
    33  H    4.427967   3.341820   2.099516   5.643261   5.554935
    34  C    3.924775   2.574446   3.321088   4.339118   4.342692
    35  H    2.604496   2.066681   3.416878   2.782945   3.206251
    36  H    4.536862   3.275683   4.053678   5.042358   5.213252
    37  H    6.457818   5.187117   5.849481   6.597640   6.499197
    38  H    7.869988   6.911539   7.380235   7.338353   6.656999
    39  H    6.302112   5.470850   5.699720   5.792817   4.908795
    40  N    8.221232   7.109298   7.776055   7.940644   7.598697
    41  O    8.475287   7.344269   8.075552   8.314498   8.123920
    42  O    9.106540   8.061924   8.704341   8.682432   8.242609
                   16         17         18         19         20
    16  H    0.000000
    17  H    1.759736   0.000000
    18  C    2.787535   2.818290   0.000000
    19  H    3.807784   3.822055   1.096786   0.000000
    20  H    3.122149   2.629333   1.095938   1.766727   0.000000
    21  H    2.610412   3.192247   1.095907   1.768647   1.766349
    22  C    2.865325   4.083423   3.170848   3.493267   4.183053
    23  C    4.597793   5.966080   5.636520   5.937477   6.614797
    24  C    4.561782   5.657940   5.933380   6.342246   6.801795
    25  O    4.409510   5.157062   5.540819   5.911773   6.349288
    26  C    5.442439   6.548231   7.214462   7.719572   8.013821
    27  C    6.164824   7.471637   7.997520   8.499704   8.831159
    28  C    6.254441   7.751868   7.822400   8.234707   8.733956
    29  C    5.644567   7.165506   6.826917   7.131371   7.802725
    30  C    5.361965   5.746591   4.766980   4.526009   5.671958
    31  H    5.513779   6.202785   5.045742   4.802312   6.053075
    32  H    5.705302   6.016555   5.511358   5.402422   6.351573
    33  H    6.200398   6.430763   5.170227   4.714875   6.023083
    34  C    4.055617   5.420307   4.556148   4.752729   5.592528
    35  H    2.260718   3.753692   2.954936   3.500017   3.866030
    36  H    4.631452   6.080201   4.843375   4.928112   5.896661
    37  H    6.061545   7.653549   6.974182   7.189786   7.978485
    38  H    6.971622   8.235486   8.969221   9.518189   9.759385
    39  H    5.761205   6.638037   7.640377   8.190606   8.354055
    40  N    7.333173   8.923794   8.944824   9.362305   9.845190
    41  O    7.632713   9.304262   9.007504   9.352767   9.933403
    42  O    8.082234   9.618723   9.913587  10.396685  10.768117
                   21         22         23         24         25
    21  H    0.000000
    22  C    2.982960   0.000000
    23  C    5.378626   2.476986   0.000000
    24  C    5.881875   3.060580   1.510996   0.000000
    25  O    5.714407   3.085536   2.429383   1.223074   0.000000
    26  C    7.102132   4.408282   2.545483   1.485439   2.331812
    27  C    7.724530   5.048520   2.856843   2.461517   3.541539
    28  C    7.408188   4.752704   2.440777   2.866728   4.081789
    29  C    6.404823   3.705857   1.466808   2.548359   3.686385
    30  C    5.228939   3.229443   3.903259   3.844530   3.124854
    31  H    5.293040   2.958576   3.237720   3.525601   3.148257
    32  H    6.001879   3.808385   4.007415   3.568533   2.674836
    33  H    5.723128   4.104784   4.897640   4.917669   4.191584
    34  C    4.253316   1.442480   1.350408   2.522975   3.000513
    35  H    2.447768   1.091933   3.020505   3.664889   3.843334
    36  H    4.366072   2.102584   2.107259   3.502569   4.075379
    37  H    6.442415   3.972931   2.191707   3.525658   4.584289
    38  H    8.688109   6.091628   3.942783   3.449708   4.425494
    39  H    7.637824   5.082087   3.513598   2.191024   2.551956
    40  N    8.407201   5.947451   3.768022   4.333713   5.551094
    41  O    8.369955   6.093965   4.136299   5.042781   6.250690
    42  O    9.397813   6.954286   4.746996   5.016619   6.197453
                   26         27         28         29         30
    26  C    0.000000
    27  C    1.339419   0.000000
    28  C    2.434125   1.448867   0.000000
    29  C    2.861239   2.443987   1.346438   0.000000
    30  C    5.232322   6.189643   6.184719   5.220918   0.000000
    31  H    4.918073   5.687312   5.474328   4.415386   1.093163
    32  H    4.794578   5.857288   6.076708   5.306489   1.094967
    33  H    6.284465   7.217627   7.157385   6.146373   1.096837
    34  C    3.785477   4.166329   3.610865   2.413026   3.446266
    35  H    4.820168   5.320144   4.962379   4.000456   4.292860
    36  H    4.628980   4.763536   3.902929   2.592949   4.131332
    37  H    3.948829   3.441540   2.129053   1.088076   5.625651
    38  H    2.099349   1.087104   2.192548   3.406467   7.190331
    39  H    1.083919   2.130118   3.436103   3.944505   5.602469
    40  N    3.763007   2.531236   1.471403   2.412931   7.551117
    41  O    4.755719   3.639270   2.331385   2.689961   7.859379
    42  O    4.108695   2.770478   2.315233   3.514647   8.477714
                   31         32         33         34         35
    31  H    0.000000
    32  H    1.773238   0.000000
    33  H    1.750793   1.775416   0.000000
    34  C    2.760921   3.908437   4.343986   0.000000
    35  H    4.036219   4.864970   5.131181   2.070107   0.000000
    36  H    3.309368   4.737953   4.872104   1.090981   2.415060
    37  H    4.706700   5.881119   6.450808   2.619676   4.170406
    38  H    6.722337   6.778228   8.213545   5.244688   6.304580
    39  H    5.472508   4.998132   6.635238   4.665393   5.504359
    40  N    6.764586   7.493694   8.485381   4.766290   6.007443
    41  O    6.975427   7.958346   8.725565   4.859014   6.077864
    42  O    7.756038   8.302781   9.439030   5.848314   6.992723
                   36         37         38         39         40
    36  H    0.000000
    37  H    2.324081   0.000000
    38  H    5.811989   4.314344   0.000000
    39  H    5.587468   5.032312   2.459562   0.000000
    40  N    4.797838   2.629320   2.737134   4.659183   0.000000
    41  O    4.608187   2.374974   3.964908   5.730513   1.239119
    42  O    5.976711   3.857597   2.464228   4.799334   1.238660
                   41         42
    41  O    0.000000
    42  O    2.192382   0.000000
 Stoichiometry    C19H18N2O3
 Framework group  C1[X(C19H18N2O3)]
 Deg. of freedom   120
 Full point group                 C1      NOp   1
 Largest Abelian subgroup         C1      NOp   1
 Largest concise Abelian subgroup C1      NOp   1
                         Standard orientation:                         
 ---------------------------------------------------------------------
 Center     Atomic      Atomic             Coordinates (Angstroms)
 Number     Number       Type             X           Y           Z
 ---------------------------------------------------------------------
      1          6           0        5.623304   -0.555900    0.904910
      2          6           0        5.305535   -1.642513    0.077405
      3          6           0        4.097616   -1.677804   -0.633257
      4          6           0        3.211082   -0.621443   -0.505707
      5          6           0        3.545165    0.463180    0.324052
      6          6           0        4.739840    0.512762    1.031272
      7          1           0        6.560367   -0.550029    1.455864
      8          1           0        6.003621   -2.471654   -0.006722
      9          1           0        4.976717    1.352739    1.675439
     10          1           0        3.870293   -2.533571   -1.257679
     11          6           0        2.407072    1.464530    0.307835
     12          6           0        1.349099    0.716444   -0.575560
     13          7           0        1.944560   -0.438344   -1.080697
     14          6           0        1.894707    1.710559    1.738509
     15          1           0        1.537984    0.782085    2.201521
     16          1           0        1.066680    2.427930    1.756994
     17          1           0        2.681504    2.117155    2.383439
     18          6           0        2.856890    2.775637   -0.351228
     19          1           0        3.237903    2.607848   -1.365927
     20          1           0        3.657297    3.255413    0.223441
     21          1           0        2.030642    3.491990   -0.423098
     22          6           0        0.110108    1.221831   -0.659694
     23          6           0       -2.015793   -0.047500   -0.590409
     24          6           0       -1.614343   -1.035063    0.480416
     25          8           0       -0.501270   -1.527675    0.600056
     26          6           0       -2.693307   -1.490123    1.394357
     27          6           0       -3.961786   -1.097625    1.218432
     28          6           0       -4.344793   -0.242641    0.113206
     29          6           0       -3.448375    0.195495   -0.790877
     30          6           0        1.370010   -1.479726   -1.902088
     31          1           0        0.440661   -1.161254   -2.381558
     32          1           0        1.161909   -2.379505   -1.313832
     33          1           0        2.054674   -1.752366   -2.714463
     34          6           0       -1.144312    0.774415   -1.213769
     35          1           0       -0.038068    2.202289   -0.202461
     36          1           0       -1.520054    1.471818   -1.963893
     37          1           0       -3.733966    0.866574   -1.598344
     38          1           0       -4.728722   -1.444342    1.906466
     39          1           0       -2.392609   -2.158431    2.192998
     40          7           0       -5.721353    0.267851    0.015704
     41          8           0       -5.979359    1.103778   -0.861835
     42          8           0       -6.538823   -0.150895    0.846771
 ---------------------------------------------------------------------
 Rotational constants (GHZ):           0.6463774           0.1068347           0.1026281
 Leave Link  202 at Fri Mar  8 20:06:41 2024, MaxMem=  2684354560 cpu:               0.4 elap:               0.0
 (Enter /s/ls4/groups/g0130/bin/g16/l301.exe)
 Standard basis: def2TZVP (5D, 7F)
 Ernie: Thresh=  0.10000D-02 Tol=  0.10000D-05 Strict=F.
 AO basis set in the form of general basis input (Overlap normalization):
      1 0
 S   6 1.00       0.000000000000
      0.1357534968D+05  0.6064550360D-03
      0.2035233368D+04  0.4697908888D-02
      0.4632256236D+03  0.2433247765D-01
      0.1312001960D+03  0.9739996831D-01
      0.4285301589D+02  0.3019558425D+00
      0.1558418577D+02  0.6623360914D+00
 S   2 1.00       0.000000000000
      0.6206713851D+01  0.6559530854D+00
      0.2576489653D+01  0.3758563329D+00
 S   1 1.00       0.000000000000
      0.5769633942D+00  0.1000000000D+01
 S   1 1.00       0.000000000000
      0.2297283136D+00  0.1000000000D+01
 S   1 1.00       0.000000000000
      0.9516444003D-01  0.1000000000D+01
 P   4 1.00       0.000000000000
      0.3469723224D+02  0.1132722000D-01
      0.7958262283D+01  0.7616965920D-01
      0.2378082688D+01  0.3019225220D+00
      0.8143320818D+00  0.7278502735D+00
 P   1 1.00       0.000000000000
      0.2888754725D+00  0.1000000000D+01
 P   1 1.00       0.000000000000
      0.1005682367D+00  0.1000000000D+01
 D   1 1.00       0.000000000000
      0.1097000000D+01  0.1000000000D+01
 D   1 1.00       0.000000000000
      0.3180000000D+00  0.1000000000D+01
 F   1 1.00       0.000000000000
      0.7610000000D+00  0.1000000000D+01
 ****
      2 0
 S   6 1.00       0.000000000000
      0.1357534968D+05  0.6064550360D-03
      0.2035233368D+04  0.4697908888D-02
      0.4632256236D+03  0.2433247765D-01
      0.1312001960D+03  0.9739996831D-01
      0.4285301589D+02  0.3019558425D+00
      0.1558418577D+02  0.6623360914D+00
 S   2 1.00       0.000000000000
      0.6206713851D+01  0.6559530854D+00
      0.2576489653D+01  0.3758563329D+00
 S   1 1.00       0.000000000000
      0.5769633942D+00  0.1000000000D+01
 S   1 1.00       0.000000000000
      0.2297283136D+00  0.1000000000D+01
 S   1 1.00       0.000000000000
      0.9516444003D-01  0.1000000000D+01
 P   4 1.00       0.000000000000
      0.3469723224D+02  0.1132722000D-01
      0.7958262283D+01  0.7616965920D-01
      0.2378082688D+01  0.3019225220D+00
      0.8143320818D+00  0.7278502735D+00
 P   1 1.00       0.000000000000
      0.2888754725D+00  0.1000000000D+01
 P   1 1.00       0.000000000000
      0.1005682367D+00  0.1000000000D+01
 D   1 1.00       0.000000000000
      0.1097000000D+01  0.1000000000D+01
 D   1 1.00       0.000000000000
      0.3180000000D+00  0.1000000000D+01
 F   1 1.00       0.000000000000
      0.7610000000D+00  0.1000000000D+01
 ****
      3 0
 S   6 1.00       0.000000000000
      0.1357534968D+05  0.6064550360D-03
      0.2035233368D+04  0.4697908888D-02
      0.4632256236D+03  0.2433247765D-01
      0.1312001960D+03  0.9739996831D-01
      0.4285301589D+02  0.3019558425D+00
      0.1558418577D+02  0.6623360914D+00
 S   2 1.00       0.000000000000
      0.6206713851D+01  0.6559530854D+00
      0.2576489653D+01  0.3758563329D+00
 S   1 1.00       0.000000000000
      0.5769633942D+00  0.1000000000D+01
 S   1 1.00       0.000000000000
      0.2297283136D+00  0.1000000000D+01
 S   1 1.00       0.000000000000
      0.9516444003D-01  0.1000000000D+01
 P   4 1.00       0.000000000000
      0.3469723224D+02  0.1132722000D-01
      0.7958262283D+01  0.7616965920D-01
      0.2378082688D+01  0.3019225220D+00
      0.8143320818D+00  0.7278502735D+00
 P   1 1.00       0.000000000000
      0.2888754725D+00  0.1000000000D+01
 P   1 1.00       0.000000000000
      0.1005682367D+00  0.1000000000D+01
 D   1 1.00       0.000000000000
      0.1097000000D+01  0.1000000000D+01
 D   1 1.00       0.000000000000
      0.3180000000D+00  0.1000000000D+01
 F   1 1.00       0.000000000000
      0.7610000000D+00  0.1000000000D+01
 ****
      4 0
 S   6 1.00       0.000000000000
      0.1357534968D+05  0.6064550360D-03
      0.2035233368D+04  0.4697908888D-02
      0.4632256236D+03  0.2433247765D-01
      0.1312001960D+03  0.9739996831D-01
      0.4285301589D+02  0.3019558425D+00
      0.1558418577D+02  0.6623360914D+00
 S   2 1.00       0.000000000000
      0.6206713851D+01  0.6559530854D+00
      0.2576489653D+01  0.3758563329D+00
 S   1 1.00       0.000000000000
      0.5769633942D+00  0.1000000000D+01
 S   1 1.00       0.000000000000
      0.2297283136D+00  0.1000000000D+01
 S   1 1.00       0.000000000000
      0.9516444003D-01  0.1000000000D+01
 P   4 1.00       0.000000000000
      0.3469723224D+02  0.1132722000D-01
      0.7958262283D+01  0.7616965920D-01
      0.2378082688D+01  0.3019225220D+00
      0.8143320818D+00  0.7278502735D+00
 P   1 1.00       0.000000000000
      0.2888754725D+00  0.1000000000D+01
 P   1 1.00       0.000000000000
      0.1005682367D+00  0.1000000000D+01
 D   1 1.00       0.000000000000
      0.1097000000D+01  0.1000000000D+01
 D   1 1.00       0.000000000000
      0.3180000000D+00  0.1000000000D+01
 F   1 1.00       0.000000000000
      0.7610000000D+00  0.1000000000D+01
 ****
      5 0
 S   6 1.00       0.000000000000
      0.1357534968D+05  0.6064550360D-03
      0.2035233368D+04  0.4697908888D-02
      0.4632256236D+03  0.2433247765D-01
      0.1312001960D+03  0.9739996831D-01
      0.4285301589D+02  0.3019558425D+00
      0.1558418577D+02  0.6623360914D+00
 S   2 1.00       0.000000000000
      0.6206713851D+01  0.6559530854D+00
      0.2576489653D+01  0.3758563329D+00
 S   1 1.00       0.000000000000
      0.5769633942D+00  0.1000000000D+01
 S   1 1.00       0.000000000000
      0.2297283136D+00  0.1000000000D+01
 S   1 1.00       0.000000000000
      0.9516444003D-01  0.1000000000D+01
 P   4 1.00       0.000000000000
      0.3469723224D+02  0.1132722000D-01
      0.7958262283D+01  0.7616965920D-01
      0.2378082688D+01  0.3019225220D+00
      0.8143320818D+00  0.7278502735D+00
 P   1 1.00       0.000000000000
      0.2888754725D+00  0.1000000000D+01
 P   1 1.00       0.000000000000
      0.1005682367D+00  0.1000000000D+01
 D   1 1.00       0.000000000000
      0.1097000000D+01  0.1000000000D+01
 D   1 1.00       0.000000000000
      0.3180000000D+00  0.1000000000D+01
 F   1 1.00       0.000000000000
      0.7610000000D+00  0.1000000000D+01
 ****
      6 0
 S   6 1.00       0.000000000000
      0.1357534968D+05  0.6064550360D-03
      0.2035233368D+04  0.4697908888D-02
      0.4632256236D+03  0.2433247765D-01
      0.1312001960D+03  0.9739996831D-01
      0.4285301589D+02  0.3019558425D+00
      0.1558418577D+02  0.6623360914D+00
 S   2 1.00       0.000000000000
      0.6206713851D+01  0.6559530854D+00
      0.2576489653D+01  0.3758563329D+00
 S   1 1.00       0.000000000000
      0.5769633942D+00  0.1000000000D+01
 S   1 1.00       0.000000000000
      0.2297283136D+00  0.1000000000D+01
 S   1 1.00       0.000000000000
      0.9516444003D-01  0.1000000000D+01
 P   4 1.00       0.000000000000
      0.3469723224D+02  0.1132722000D-01
      0.7958262283D+01  0.7616965920D-01
      0.2378082688D+01  0.3019225220D+00
      0.8143320818D+00  0.7278502735D+00
 P   1 1.00       0.000000000000
      0.2888754725D+00  0.1000000000D+01
 P   1 1.00       0.000000000000
      0.1005682367D+00  0.1000000000D+01
 D   1 1.00       0.000000000000
      0.1097000000D+01  0.1000000000D+01
 D   1 1.00       0.000000000000
      0.3180000000D+00  0.1000000000D+01
 F   1 1.00       0.000000000000
      0.7610000000D+00  0.1000000000D+01
 ****
      7 0
 S   3 1.00       0.000000000000
      0.3406134100D+02  0.2543930721D-01
      0.5123574600D+01  0.1900859489D+00
      0.1164662600D+01  0.8524411301D+00
 S   1 1.00       0.000000000000
      0.3272304100D+00  0.1000000000D+01
 S   1 1.00       0.000000000000
      0.1030724100D+00  0.1000000000D+01
 P   1 1.00       0.000000000000
      0.8000000000D+00  0.1000000000D+01
 ****
      8 0
 S   3 1.00       0.000000000000
      0.3406134100D+02  0.2543930721D-01
      0.5123574600D+01  0.1900859489D+00
      0.1164662600D+01  0.8524411301D+00
 S   1 1.00       0.000000000000
      0.3272304100D+00  0.1000000000D+01
 S   1 1.00       0.000000000000
      0.1030724100D+00  0.1000000000D+01
 P   1 1.00       0.000000000000
      0.8000000000D+00  0.1000000000D+01
 ****
      9 0
 S   3 1.00       0.000000000000
      0.3406134100D+02  0.2543930721D-01
      0.5123574600D+01  0.1900859489D+00
      0.1164662600D+01  0.8524411301D+00
 S   1 1.00       0.000000000000
      0.3272304100D+00  0.1000000000D+01
 S   1 1.00       0.000000000000
      0.1030724100D+00  0.1000000000D+01
 P   1 1.00       0.000000000000
      0.8000000000D+00  0.1000000000D+01
 ****
     10 0
 S   3 1.00       0.000000000000
      0.3406134100D+02  0.2543930721D-01
      0.5123574600D+01  0.1900859489D+00
      0.1164662600D+01  0.8524411301D+00
 S   1 1.00       0.000000000000
      0.3272304100D+00  0.1000000000D+01
 S   1 1.00       0.000000000000
      0.1030724100D+00  0.1000000000D+01
 P   1 1.00       0.000000000000
      0.8000000000D+00  0.1000000000D+01
 ****
     11 0
 S   6 1.00       0.000000000000
      0.1357534968D+05  0.6064550360D-03
      0.2035233368D+04  0.4697908888D-02
      0.4632256236D+03  0.2433247765D-01
      0.1312001960D+03  0.9739996831D-01
      0.4285301589D+02  0.3019558425D+00
      0.1558418577D+02  0.6623360914D+00
 S   2 1.00       0.000000000000
      0.6206713851D+01  0.6559530854D+00
      0.2576489653D+01  0.3758563329D+00
 S   1 1.00       0.000000000000
      0.5769633942D+00  0.1000000000D+01
 S   1 1.00       0.000000000000
      0.2297283136D+00  0.1000000000D+01
 S   1 1.00       0.000000000000
      0.9516444003D-01  0.1000000000D+01
 P   4 1.00       0.000000000000
      0.3469723224D+02  0.1132722000D-01
      0.7958262283D+01  0.7616965920D-01
      0.2378082688D+01  0.3019225220D+00
      0.8143320818D+00  0.7278502735D+00
 P   1 1.00       0.000000000000
      0.2888754725D+00  0.1000000000D+01
 P   1 1.00       0.000000000000
      0.1005682367D+00  0.1000000000D+01
 D   1 1.00       0.000000000000
      0.1097000000D+01  0.1000000000D+01
 D   1 1.00       0.000000000000
      0.3180000000D+00  0.1000000000D+01
 F   1 1.00       0.000000000000
      0.7610000000D+00  0.1000000000D+01
 ****
     12 0
 S   6 1.00       0.000000000000
      0.1357534968D+05  0.6064550360D-03
      0.2035233368D+04  0.4697908888D-02
      0.4632256236D+03  0.2433247765D-01
      0.1312001960D+03  0.9739996831D-01
      0.4285301589D+02  0.3019558425D+00
      0.1558418577D+02  0.6623360914D+00
 S   2 1.00       0.000000000000
      0.6206713851D+01  0.6559530854D+00
      0.2576489653D+01  0.3758563329D+00
 S   1 1.00       0.000000000000
      0.5769633942D+00  0.1000000000D+01
 S   1 1.00       0.000000000000
      0.2297283136D+00  0.1000000000D+01
 S   1 1.00       0.000000000000
      0.9516444003D-01  0.1000000000D+01
 P   4 1.00       0.000000000000
      0.3469723224D+02  0.1132722000D-01
      0.7958262283D+01  0.7616965920D-01
      0.2378082688D+01  0.3019225220D+00
      0.8143320818D+00  0.7278502735D+00
 P   1 1.00       0.000000000000
      0.2888754725D+00  0.1000000000D+01
 P   1 1.00       0.000000000000
      0.1005682367D+00  0.1000000000D+01
 D   1 1.00       0.000000000000
      0.1097000000D+01  0.1000000000D+01
 D   1 1.00       0.000000000000
      0.3180000000D+00  0.1000000000D+01
 F   1 1.00       0.000000000000
      0.7610000000D+00  0.1000000000D+01
 ****
     13 0
 S   6 1.00       0.000000000000
      0.1973080065D+05  0.5862640263D-03
      0.2957895874D+04  0.4542882059D-02
      0.6732213360D+03  0.2355841345D-01
      0.1906824949D+03  0.9470919329D-01
      0.6229544190D+02  0.2971978491D+00
      0.2265416118D+02  0.6691624690D+00
 S   2 1.00       0.000000000000
      0.8979147743D+01  0.6459668363D+00
      0.3686300237D+01  0.3870057439D+00
 S   1 1.00       0.000000000000
      0.8466007680D+00  0.1000000000D+01
 S   1 1.00       0.000000000000
      0.3364713377D+00  0.1000000000D+01
 S   1 1.00       0.000000000000
      0.1364765367D+00  0.1000000000D+01
 P   4 1.00       0.000000000000
      0.4920038051D+02  0.1144882510D-01
      0.1134679054D+02  0.7842233797D-01
      0.3427397241D+01  0.3081809474D+00
      0.1178552513D+01  0.7202719637D+00
 P   1 1.00       0.000000000000
      0.4164220497D+00  0.1000000000D+01
 P   1 1.00       0.000000000000
      0.1426082601D+00  0.1000000000D+01
 D   1 1.00       0.000000000000
      0.1654000000D+01  0.1000000000D+01
 D   1 1.00       0.000000000000
      0.4690000000D+00  0.1000000000D+01
 F   1 1.00       0.000000000000
      0.1093000000D+01  0.1000000000D+01
 ****
     14 0
 S   6 1.00       0.000000000000
      0.1357534968D+05  0.6064550360D-03
      0.2035233368D+04  0.4697908888D-02
      0.4632256236D+03  0.2433247765D-01
      0.1312001960D+03  0.9739996831D-01
      0.4285301589D+02  0.3019558425D+00
      0.1558418577D+02  0.6623360914D+00
 S   2 1.00       0.000000000000
      0.6206713851D+01  0.6559530854D+00
      0.2576489653D+01  0.3758563329D+00
 S   1 1.00       0.000000000000
      0.5769633942D+00  0.1000000000D+01
 S   1 1.00       0.000000000000
      0.2297283136D+00  0.1000000000D+01
 S   1 1.00       0.000000000000
      0.9516444003D-01  0.1000000000D+01
 P   4 1.00       0.000000000000
      0.3469723224D+02  0.1132722000D-01
      0.7958262283D+01  0.7616965920D-01
      0.2378082688D+01  0.3019225220D+00
      0.8143320818D+00  0.7278502735D+00
 P   1 1.00       0.000000000000
      0.2888754725D+00  0.1000000000D+01
 P   1 1.00       0.000000000000
      0.1005682367D+00  0.1000000000D+01
 D   1 1.00       0.000000000000
      0.1097000000D+01  0.1000000000D+01
 D   1 1.00       0.000000000000
      0.3180000000D+00  0.1000000000D+01
 F   1 1.00       0.000000000000
      0.7610000000D+00  0.1000000000D+01
 ****
     15 0
 S   3 1.00       0.000000000000
      0.3406134100D+02  0.2543930721D-01
      0.5123574600D+01  0.1900859489D+00
      0.1164662600D+01  0.8524411301D+00
 S   1 1.00       0.000000000000
      0.3272304100D+00  0.1000000000D+01
 S   1 1.00       0.000000000000
      0.1030724100D+00  0.1000000000D+01
 P   1 1.00       0.000000000000
      0.8000000000D+00  0.1000000000D+01
 ****
     16 0
 S   3 1.00       0.000000000000
      0.3406134100D+02  0.2543930721D-01
      0.5123574600D+01  0.1900859489D+00
      0.1164662600D+01  0.8524411301D+00
 S   1 1.00       0.000000000000
      0.3272304100D+00  0.1000000000D+01
 S   1 1.00       0.000000000000
      0.1030724100D+00  0.1000000000D+01
 P   1 1.00       0.000000000000
      0.8000000000D+00  0.1000000000D+01
 ****
     17 0
 S   3 1.00       0.000000000000
      0.3406134100D+02  0.2543930721D-01
      0.5123574600D+01  0.1900859489D+00
      0.1164662600D+01  0.8524411301D+00
 S   1 1.00       0.000000000000
      0.3272304100D+00  0.1000000000D+01
 S   1 1.00       0.000000000000
      0.1030724100D+00  0.1000000000D+01
 P   1 1.00       0.000000000000
      0.8000000000D+00  0.1000000000D+01
 ****
     18 0
 S   6 1.00       0.000000000000
      0.1357534968D+05  0.6064550360D-03
      0.2035233368D+04  0.4697908888D-02
      0.4632256236D+03  0.2433247765D-01
      0.1312001960D+03  0.9739996831D-01
      0.4285301589D+02  0.3019558425D+00
      0.1558418577D+02  0.6623360914D+00
 S   2 1.00       0.000000000000
      0.6206713851D+01  0.6559530854D+00
      0.2576489653D+01  0.3758563329D+00
 S   1 1.00       0.000000000000
      0.5769633942D+00  0.1000000000D+01
 S   1 1.00       0.000000000000
      0.2297283136D+00  0.1000000000D+01
 S   1 1.00       0.000000000000
      0.9516444003D-01  0.1000000000D+01
 P   4 1.00       0.000000000000
      0.3469723224D+02  0.1132722000D-01
      0.7958262283D+01  0.7616965920D-01
      0.2378082688D+01  0.3019225220D+00
      0.8143320818D+00  0.7278502735D+00
 P   1 1.00       0.000000000000
      0.2888754725D+00  0.1000000000D+01
 P   1 1.00       0.000000000000
      0.1005682367D+00  0.1000000000D+01
 D   1 1.00       0.000000000000
      0.1097000000D+01  0.1000000000D+01
 D   1 1.00       0.000000000000
      0.3180000000D+00  0.1000000000D+01
 F   1 1.00       0.000000000000
      0.7610000000D+00  0.1000000000D+01
 ****
     19 0
 S   3 1.00       0.000000000000
      0.3406134100D+02  0.2543930721D-01
      0.5123574600D+01  0.1900859489D+00
      0.1164662600D+01  0.8524411301D+00
 S   1 1.00       0.000000000000
      0.3272304100D+00  0.1000000000D+01
 S   1 1.00       0.000000000000
      0.1030724100D+00  0.1000000000D+01
 P   1 1.00       0.000000000000
      0.8000000000D+00  0.1000000000D+01
 ****
     20 0
 S   3 1.00       0.000000000000
      0.3406134100D+02  0.2543930721D-01
      0.5123574600D+01  0.1900859489D+00
      0.1164662600D+01  0.8524411301D+00
 S   1 1.00       0.000000000000
      0.3272304100D+00  0.1000000000D+01
 S   1 1.00       0.000000000000
      0.1030724100D+00  0.1000000000D+01
 P   1 1.00       0.000000000000
      0.8000000000D+00  0.1000000000D+01
 ****
     21 0
 S   3 1.00       0.000000000000
      0.3406134100D+02  0.2543930721D-01
      0.5123574600D+01  0.1900859489D+00
      0.1164662600D+01  0.8524411301D+00
 S   1 1.00       0.000000000000
      0.3272304100D+00  0.1000000000D+01
 S   1 1.00       0.000000000000
      0.1030724100D+00  0.1000000000D+01
 P   1 1.00       0.000000000000
      0.8000000000D+00  0.1000000000D+01
 ****
     22 0
 S   6 1.00       0.000000000000
      0.1357534968D+05  0.6064550360D-03
      0.2035233368D+04  0.4697908888D-02
      0.4632256236D+03  0.2433247765D-01
      0.1312001960D+03  0.9739996831D-01
      0.4285301589D+02  0.3019558425D+00
      0.1558418577D+02  0.6623360914D+00
 S   2 1.00       0.000000000000
      0.6206713851D+01  0.6559530854D+00
      0.2576489653D+01  0.3758563329D+00
 S   1 1.00       0.000000000000
      0.5769633942D+00  0.1000000000D+01
 S   1 1.00       0.000000000000
      0.2297283136D+00  0.1000000000D+01
 S   1 1.00       0.000000000000
      0.9516444003D-01  0.1000000000D+01
 P   4 1.00       0.000000000000
      0.3469723224D+02  0.1132722000D-01
      0.7958262283D+01  0.7616965920D-01
      0.2378082688D+01  0.3019225220D+00
      0.8143320818D+00  0.7278502735D+00
 P   1 1.00       0.000000000000
      0.2888754725D+00  0.1000000000D+01
 P   1 1.00       0.000000000000
      0.1005682367D+00  0.1000000000D+01
 D   1 1.00       0.000000000000
      0.1097000000D+01  0.1000000000D+01
 D   1 1.00       0.000000000000
      0.3180000000D+00  0.1000000000D+01
 F   1 1.00       0.000000000000
      0.7610000000D+00  0.1000000000D+01
 ****
     23 0
 S   6 1.00       0.000000000000
      0.1357534968D+05  0.6064550360D-03
      0.2035233368D+04  0.4697908888D-02
      0.4632256236D+03  0.2433247765D-01
      0.1312001960D+03  0.9739996831D-01
      0.4285301589D+02  0.3019558425D+00
      0.1558418577D+02  0.6623360914D+00
 S   2 1.00       0.000000000000
      0.6206713851D+01  0.6559530854D+00
      0.2576489653D+01  0.3758563329D+00
 S   1 1.00       0.000000000000
      0.5769633942D+00  0.1000000000D+01
 S   1 1.00       0.000000000000
      0.2297283136D+00  0.1000000000D+01
 S   1 1.00       0.000000000000
      0.9516444003D-01  0.1000000000D+01
 P   4 1.00       0.000000000000
      0.3469723224D+02  0.1132722000D-01
      0.7958262283D+01  0.7616965920D-01
      0.2378082688D+01  0.3019225220D+00
      0.8143320818D+00  0.7278502735D+00
 P   1 1.00       0.000000000000
      0.2888754725D+00  0.1000000000D+01
 P   1 1.00       0.000000000000
      0.1005682367D+00  0.1000000000D+01
 D   1 1.00       0.000000000000
      0.1097000000D+01  0.1000000000D+01
 D   1 1.00       0.000000000000
      0.3180000000D+00  0.1000000000D+01
 F   1 1.00       0.000000000000
      0.7610000000D+00  0.1000000000D+01
 ****
     24 0
 S   6 1.00       0.000000000000
      0.1357534968D+05  0.6064550360D-03
      0.2035233368D+04  0.4697908888D-02
      0.4632256236D+03  0.2433247765D-01
      0.1312001960D+03  0.9739996831D-01
      0.4285301589D+02  0.3019558425D+00
      0.1558418577D+02  0.6623360914D+00
 S   2 1.00       0.000000000000
      0.6206713851D+01  0.6559530854D+00
      0.2576489653D+01  0.3758563329D+00
 S   1 1.00       0.000000000000
      0.5769633942D+00  0.1000000000D+01
 S   1 1.00       0.000000000000
      0.2297283136D+00  0.1000000000D+01
 S   1 1.00       0.000000000000
      0.9516444003D-01  0.1000000000D+01
 P   4 1.00       0.000000000000
      0.3469723224D+02  0.1132722000D-01
      0.7958262283D+01  0.7616965920D-01
      0.2378082688D+01  0.3019225220D+00
      0.8143320818D+00  0.7278502735D+00
 P   1 1.00       0.000000000000
      0.2888754725D+00  0.1000000000D+01
 P   1 1.00       0.000000000000
      0.1005682367D+00  0.1000000000D+01
 D   1 1.00       0.000000000000
      0.1097000000D+01  0.1000000000D+01
 D   1 1.00       0.000000000000
      0.3180000000D+00  0.1000000000D+01
 F   1 1.00       0.000000000000
      0.7610000000D+00  0.1000000000D+01
 ****
     25 0
 S   6 1.00       0.000000000000
      0.2703238263D+05  0.5722733521D-03
      0.4052387139D+04  0.4435323349D-02
      0.9223272271D+03  0.2302010771D-01
      0.2612407099D+03  0.9282249067D-01
      0.8535464135D+02  0.2937850001D+00
      0.3103503524D+02  0.6740160450D+00
 S   2 1.00       0.000000000000
      0.1226086073D+02  0.6383993703D+00
      0.4998707601D+01  0.3953458713D+00
 S   1 1.00       0.000000000000
      0.1170310816D+01  0.1000000000D+01
 S   1 1.00       0.000000000000
      0.4647474099D+00  0.1000000000D+01
 S   1 1.00       0.000000000000
      0.1850453636D+00  0.1000000000D+01
 P   4 1.00       0.000000000000
      0.6327495480D+02  0.1201833222D-01
      0.1462704938D+02  0.8300542179D-01
      0.4450122346D+01  0.3199174393D+00
      0.1527579965D+01  0.7071554292D+00
 P   1 1.00       0.000000000000
      0.5293511794D+00  0.1000000000D+01
 P   1 1.00       0.000000000000
      0.1747842127D+00  0.1000000000D+01
 D   1 1.00       0.000000000000
      0.2314000000D+01  0.1000000000D+01
 D   1 1.00       0.000000000000
      0.6450000000D+00  0.1000000000D+01
 F   1 1.00       0.000000000000
      0.1428000000D+01  0.1000000000D+01
 ****
     26 0
 S   6 1.00       0.000000000000
      0.1357534968D+05  0.6064550360D-03
      0.2035233368D+04  0.4697908888D-02
      0.4632256236D+03  0.2433247765D-01
      0.1312001960D+03  0.9739996831D-01
      0.4285301589D+02  0.3019558425D+00
      0.1558418577D+02  0.6623360914D+00
 S   2 1.00       0.000000000000
      0.6206713851D+01  0.6559530854D+00
      0.2576489653D+01  0.3758563329D+00
 S   1 1.00       0.000000000000
      0.5769633942D+00  0.1000000000D+01
 S   1 1.00       0.000000000000
      0.2297283136D+00  0.1000000000D+01
 S   1 1.00       0.000000000000
      0.9516444003D-01  0.1000000000D+01
 P   4 1.00       0.000000000000
      0.3469723224D+02  0.1132722000D-01
      0.7958262283D+01  0.7616965920D-01
      0.2378082688D+01  0.3019225220D+00
      0.8143320818D+00  0.7278502735D+00
 P   1 1.00       0.000000000000
      0.2888754725D+00  0.1000000000D+01
 P   1 1.00       0.000000000000
      0.1005682367D+00  0.1000000000D+01
 D   1 1.00       0.000000000000
      0.1097000000D+01  0.1000000000D+01
 D   1 1.00       0.000000000000
      0.3180000000D+00  0.1000000000D+01
 F   1 1.00       0.000000000000
      0.7610000000D+00  0.1000000000D+01
 ****
     27 0
 S   6 1.00       0.000000000000
      0.1357534968D+05  0.6064550360D-03
      0.2035233368D+04  0.4697908888D-02
      0.4632256236D+03  0.2433247765D-01
      0.1312001960D+03  0.9739996831D-01
      0.4285301589D+02  0.3019558425D+00
      0.1558418577D+02  0.6623360914D+00
 S   2 1.00       0.000000000000
      0.6206713851D+01  0.6559530854D+00
      0.2576489653D+01  0.3758563329D+00
 S   1 1.00       0.000000000000
      0.5769633942D+00  0.1000000000D+01
 S   1 1.00       0.000000000000
      0.2297283136D+00  0.1000000000D+01
 S   1 1.00       0.000000000000
      0.9516444003D-01  0.1000000000D+01
 P   4 1.00       0.000000000000
      0.3469723224D+02  0.1132722000D-01
      0.7958262283D+01  0.7616965920D-01
      0.2378082688D+01  0.3019225220D+00
      0.8143320818D+00  0.7278502735D+00
 P   1 1.00       0.000000000000
      0.2888754725D+00  0.1000000000D+01
 P   1 1.00       0.000000000000
      0.1005682367D+00  0.1000000000D+01
 D   1 1.00       0.000000000000
      0.1097000000D+01  0.1000000000D+01
 D   1 1.00       0.000000000000
      0.3180000000D+00  0.1000000000D+01
 F   1 1.00       0.000000000000
      0.7610000000D+00  0.1000000000D+01
 ****
     28 0
 S   6 1.00       0.000000000000
      0.1357534968D+05  0.6064550360D-03
      0.2035233368D+04  0.4697908888D-02
      0.4632256236D+03  0.2433247765D-01
      0.1312001960D+03  0.9739996831D-01
      0.4285301589D+02  0.3019558425D+00
      0.1558418577D+02  0.6623360914D+00
 S   2 1.00       0.000000000000
      0.6206713851D+01  0.6559530854D+00
      0.2576489653D+01  0.3758563329D+00
 S   1 1.00       0.000000000000
      0.5769633942D+00  0.1000000000D+01
 S   1 1.00       0.000000000000
      0.2297283136D+00  0.1000000000D+01
 S   1 1.00       0.000000000000
      0.9516444003D-01  0.1000000000D+01
 P   4 1.00       0.000000000000
      0.3469723224D+02  0.1132722000D-01
      0.7958262283D+01  0.7616965920D-01
      0.2378082688D+01  0.3019225220D+00
      0.8143320818D+00  0.7278502735D+00
 P   1 1.00       0.000000000000
      0.2888754725D+00  0.1000000000D+01
 P   1 1.00       0.000000000000
      0.1005682367D+00  0.1000000000D+01
 D   1 1.00       0.000000000000
      0.1097000000D+01  0.1000000000D+01
 D   1 1.00       0.000000000000
      0.3180000000D+00  0.1000000000D+01
 F   1 1.00       0.000000000000
      0.7610000000D+00  0.1000000000D+01
 ****
     29 0
 S   6 1.00       0.000000000000
      0.1357534968D+05  0.6064550360D-03
      0.2035233368D+04  0.4697908888D-02
      0.4632256236D+03  0.2433247765D-01
      0.1312001960D+03  0.9739996831D-01
      0.4285301589D+02  0.3019558425D+00
      0.1558418577D+02  0.6623360914D+00
 S   2 1.00       0.000000000000
      0.6206713851D+01  0.6559530854D+00
      0.2576489653D+01  0.3758563329D+00
 S   1 1.00       0.000000000000
      0.5769633942D+00  0.1000000000D+01
 S   1 1.00       0.000000000000
      0.2297283136D+00  0.1000000000D+01
 S   1 1.00       0.000000000000
      0.9516444003D-01  0.1000000000D+01
 P   4 1.00       0.000000000000
      0.3469723224D+02  0.1132722000D-01
      0.7958262283D+01  0.7616965920D-01
      0.2378082688D+01  0.3019225220D+00
      0.8143320818D+00  0.7278502735D+00
 P   1 1.00       0.000000000000
      0.2888754725D+00  0.1000000000D+01
 P   1 1.00       0.000000000000
      0.1005682367D+00  0.1000000000D+01
 D   1 1.00       0.000000000000
      0.1097000000D+01  0.1000000000D+01
 D   1 1.00       0.000000000000
      0.3180000000D+00  0.1000000000D+01
 F   1 1.00       0.000000000000
      0.7610000000D+00  0.1000000000D+01
 ****
     30 0
 S   6 1.00       0.000000000000
      0.1357534968D+05  0.6064550360D-03
      0.2035233368D+04  0.4697908888D-02
      0.4632256236D+03  0.2433247765D-01
      0.1312001960D+03  0.9739996831D-01
      0.4285301589D+02  0.3019558425D+00
      0.1558418577D+02  0.6623360914D+00
 S   2 1.00       0.000000000000
      0.6206713851D+01  0.6559530854D+00
      0.2576489653D+01  0.3758563329D+00
 S   1 1.00       0.000000000000
      0.5769633942D+00  0.1000000000D+01
 S   1 1.00       0.000000000000
      0.2297283136D+00  0.1000000000D+01
 S   1 1.00       0.000000000000
      0.9516444003D-01  0.1000000000D+01
 P   4 1.00       0.000000000000
      0.3469723224D+02  0.1132722000D-01
      0.7958262283D+01  0.7616965920D-01
      0.2378082688D+01  0.3019225220D+00
      0.8143320818D+00  0.7278502735D+00
 P   1 1.00       0.000000000000
      0.2888754725D+00  0.1000000000D+01
 P   1 1.00       0.000000000000
      0.1005682367D+00  0.1000000000D+01
 D   1 1.00       0.000000000000
      0.1097000000D+01  0.1000000000D+01
 D   1 1.00       0.000000000000
      0.3180000000D+00  0.1000000000D+01
 F   1 1.00       0.000000000000
      0.7610000000D+00  0.1000000000D+01
 ****
     31 0
 S   3 1.00       0.000000000000
      0.3406134100D+02  0.2543930721D-01
[...]
 0000082,-0.00000192,-0.00000038,0.00000081,-0.00000674,-0.00002834,-0.
 00002486,-0.00006544,-0.00006622,0.00021471,0.00000970,0.00024397,-0.0
 0020484,0.00000284,0.00000682,-0.00002276,-0.00001030,0.00000649,-0.00
 000113,-0.00000308,0.00000002,0.00000134,0.00000759,-0.00000456,-0.000
 00073,0.00001976,0.00000054,0.00001097,-0.00000108,0.00000189,-0.00000
 007,-0.00000041,-0.00000441,-0.00000772,-0.00000172,-0.00000128,-0.000
 00146,0.00021971,-0.00002597,-0.00005117,-0.00009476,0.00069775,-0.000
 27731,0.00212511,-0.00409904,0.00470833,0.00034809,0.00038866,-0.00148
 742,-0.00003956,-0.00809002,-0.00521691,0.01951496,-0.13854506,-0.2564
 4574,0.00205202,-0.00664744,-0.00657088,-0.00215985,-0.00164826,0.0013
 4136,0.00005534,-0.00003444,-0.00000950,-0.00000180,0.00000425,0.00000
 661,-0.00000695,-0.00000297,-0.00000154,-0.00000613,0.00000596,-0.0000
 0575,-0.00011921,0.00036825,0.00002107,0.00003507,-0.00003947,0.000021
 47,0.00005695,0.00001860,0.00004322,0.00024061,-0.00045360,-0.00012109
 ,-0.02522321,0.15361812,0.26710794,0.00001769,0.00002787,-0.00000449,0
 .00002446,-0.00000980,-0.00001321,0.00000454,-0.00001489,0.00000097,-0
 .00007132,-0.00001171,0.00004556,0.00003576,0.00000445,-0.00001167,-0.
 00002279,0.00000291,0.00000026,0.00000298,0.00000195,0.00000096,0.0000
 0394,0.00000298,-0.00000209,0.00000199,-0.00000315,-0.00000093,-0.0000
 0281,0.00000044,0.00000012,-0.00001933,-0.00002283,-0.00003669,-0.0002
 5372,-0.00029704,0.00009435,0.00004993,0.00025833,-0.00002261,0.000007
 47,0.00001198,-0.00002061,-0.00000633,0.00000233,-0.00000144,-0.000007
 33,0.00000468,-0.00000114,0.00001088,-0.00000542,-0.00000010,0.0000296
 5,-0.00000057,0.00001530,-0.00000132,0.00000235,0.00000120,0.00000259,
 -0.00000675,-0.00001116,-0.00000357,0.00000210,0.00000137,0.00035735,0
 .00001836,-0.00031446,0.00052752,-0.00035023,0.00032803,0.00271096,0.0
 0235675,0.00391361,0.00151930,0.00040684,-0.00068466,-0.24600484,-0.10
 006465,-0.09152669,-0.01840370,-0.01190963,-0.01192730,-0.00170202,0.0
 0069207,0.00407857,0.00002785,0.00037173,0.00048523,0.00004227,-0.0000
 5039,-0.00002568,0.00000454,-0.00000601,0.00000578,-0.00002351,-0.0000
 0432,0.00001974,-0.00000096,0.00001112,-0.00000080,-0.00004685,0.00045
 753,0.00057312,0.00005549,-0.00004138,0.00002533,0.00000864,0.00004256
 ,0.00001233,-0.00005276,0.00000372,-0.00012455,0.00105518,0.00096997,-
 0.00061277,0.26134862,0.00000745,0.00001229,-0.00000362,0.00000953,-0.
 00000522,-0.00000239,0.00000163,0.00000128,-0.00000328,-0.00005197,-0.
 00001574,0.00003099,0.00002665,-0.00000482,-0.00000378,-0.00000844,-0.
 00000127,0.00000196,0.00000198,0.00000092,-0.00000009,0.00000140,0.000
 00132,-0.00000018,0.00000142,-0.00000203,-0.00000132,-0.00000184,-0.00
 000353,0.00000249,-0.00000127,-0.00000185,-0.00000531,-0.00000444,-0.0
 0005858,0.00011519,-0.00002476,0.00007735,-0.00005955,0.00001295,0.000
 00054,-0.00001553,-0.00001192,0.00000899,-0.00000455,-0.00000288,-0.00
 000167,-0.00000038,0.00000486,-0.00000668,-0.00000371,0.00001489,0.000
 00028,0.00000669,-0.00000141,0.00000042,0.00000034,0.00000168,-0.00000
 135,-0.00000641,-0.00000281,0.00000180,0.00000095,0.00005480,0.0000480
 7,0.00003655,0.00051937,0.00125315,-0.00424313,-0.01587308,-0.00206339
 ,-0.00522925,0.00173789,-0.00071762,0.00288469,-0.09989734,-0.09040476
 ,-0.05769601,0.00486623,0.00442618,0.00170315,-0.00024355,0.00622638,-
 0.00365011,0.00075941,-0.00071454,-0.00038693,0.00003295,0.00001883,-0
 .00000865,0.00001034,-0.00000599,0.00003644,-0.00001378,-0.00002744,0.
 00001553,0.00001432,0.00000070,-0.00002296,-0.00095787,-0.00061518,0.0
 0035209,0.00000917,0.00000127,-0.00004001,-0.00008317,-0.00019654,-0.0
 0023771,0.00003296,-0.00034317,0.00023234,0.00062328,-0.00382881,0.003
 18733,0.10806776,0.08601577,0.00001692,0.00002180,-0.00000057,0.000021
 75,-0.00000292,-0.00001129,0.00000601,-0.00001331,0.00000983,-0.000054
 63,0.00000169,0.00004048,0.00003389,-0.00000104,-0.00001237,-0.0000172
 7,0.00000448,0.00000109,0.00000170,0.00000195,0.00000007,0.00000349,0.
 00000244,-0.00000325,0.00000132,-0.00000216,-0.00000119,-0.00000426,0.
 00000211,-0.00000281,-0.00001812,-0.00000535,-0.00002911,-0.00032294,-
 0.00022887,-0.00010260,0.00006614,0.00017058,0.00001368,-0.00000856,0.
 00000761,-0.00001931,0.00000368,-0.00000045,0.00000687,-0.00000373,0.0
 0000761,-0.00000173,0.00000927,0.00000113,0.00000763,0.00002470,-0.000
 00381,0.00001105,-0.00000084,0.00000241,0.00000205,0.00000358,-0.00000
 429,-0.00000929,-0.00000258,0.00000604,0.00000382,0.00025147,0.0000037
 3,-0.00021209,0.00136204,-0.00394118,-0.00342314,-0.02294179,-0.011458
 60,-0.00661725,0.00027259,0.00327898,0.00231485,-0.09170012,-0.0569007
 9,-0.09381569,0.01384756,0.00649710,0.00842790,0.00305333,-0.00384893,
 0.00191365,0.00099861,0.00003610,-0.00098409,0.00003967,-0.00002074,-0
 .00000708,0.00000712,-0.00001553,0.00002071,-0.00003910,-0.00001157,0.
 00000169,0.00000335,0.00001529,-0.00000157,-0.00150046,0.00003494,0.00
 007529,0.00013756,-0.00006995,0.00004825,0.00005509,-0.00031144,-0.000
 26247,-0.00009903,0.00023904,-0.00009524,-0.00110208,0.00307722,-0.001
 04420,0.09647187,0.06336369,0.09309149,0.00057199,0.00079914,-0.000139
 68,0.00068466,-0.00027932,-0.00037498,0.00014548,-0.00045650,-0.000093
 31,-0.00213947,-0.00037731,0.00142406,0.00098653,0.00008804,-0.0004412
 2,-0.00064982,0.00013347,-0.00000368,0.00011299,0.00006381,0.00002777,
 0.00012842,0.00010030,-0.00004936,0.00006866,-0.00011231,-0.00002837,-
 0.00008254,-0.00005088,0.00009416,-0.00081717,-0.00077092,-0.00114496,
 -0.00889048,-0.00979672,0.00192198,0.00165559,0.00709321,0.00219031,0.
 00053245,0.00039792,-0.00073545,-0.00047678,0.00020147,-0.00002236,-0.
 00022167,0.00016567,-0.00001979,0.00039874,-0.00023749,-0.00006838,0.0
 0118787,0.00002335,0.00049873,-0.00004173,0.00008487,0.00004404,0.0000
 7624,-0.00027663,-0.00042954,-0.00013246,0.00005463,0.00006775,0.01179
 012,0.00115868,-0.00923759,0.02754814,-0.00671086,-0.01725492,-0.02005
 493,0.00164010,0.00534030,0.01955606,-0.00031972,-0.00962170,0.0089952
 1,-0.01007782,-0.01457284,-0.05636488,-0.00232049,0.01203308,-0.140519
 34,-0.01224434,0.00237213,-0.02773647,0.02802463,0.05285060,0.00143899
 ,-0.00092502,-0.00048822,0.00023842,-0.00025908,0.00023846,-0.00055711
 ,-0.00074487,0.00078910,0.00008302,0.00024373,-0.00040205,-0.00471861,
 0.00934162,0.01638105,0.00162080,-0.00131078,0.00088237,-0.00158993,0.
 00048666,-0.00085790,-0.00183498,-0.00143449,-0.00394312,0.00132629,0.
 00168781,0.00089454,-0.00007126,0.00025366,0.00096810,0.69157975,-0.00
 004860,-0.00006951,0.00001057,-0.00005800,0.00002335,0.00002873,-0.000
 00998,0.00003887,0.00001031,0.00021051,0.00005365,-0.00011705,-0.00006
 808,-0.00001088,0.00003370,0.00005517,-0.00000582,-0.00000776,-0.00000
 899,-0.00000514,0.00000006,-0.00001188,-0.00000886,0.00000537,-0.00000
 521,0.00000954,0.00000257,0.00000790,0.00000451,-0.00000550,0.00007792
 ,0.00011002,0.00006754,0.00061613,0.00095420,-0.00019089,-0.00008854,-
 0.00057136,-0.00017228,-0.00006892,-0.00003245,0.00005517,0.00006178,-
 0.00002447,0.00000574,0.00001423,-0.00001152,-0.00000155,-0.00003334,0
 .00002974,0.00001299,-0.00011504,-0.00001460,-0.00003757,0.00000715,-0
 .00000366,-0.00000525,-0.00000690,0.00002737,0.00003980,0.00001127,-0.
 00000050,-0.00000373,-0.00105313,-0.00099902,0.00086851,-0.00464765,0.
 00341114,-0.00552736,0.00152056,-0.00275971,-0.00223632,-0.00227829,0.
 00009916,0.00187630,-0.00565586,0.00226939,-0.00263251,-0.00343707,0.0
 0175105,0.01476617,-0.00359151,-0.09083935,-0.01693256,0.02310886,-0.0
 0466657,-0.00480664,-0.00016706,0.00006980,-0.00000176,0.00001602,0.00
 000534,-0.00001206,0.00003569,0.00008802,-0.00011208,0.00001862,-0.000
 00988,0.00004177,0.00087013,0.00117535,-0.00302590,0.00019281,-0.00010
 986,0.00001449,-0.00012709,0.00002334,-0.00005068,0.00002839,-0.004212
 96,0.00106556,-0.00045343,-0.00309394,-0.00039154,-0.00108417,0.001664
 97,-0.00041154,0.11786613,0.46249416,-0.00023774,-0.00031870,0.0000567
 8,-0.00026824,0.00010681,0.00014307,-0.00007417,0.00017590,0.00004403,
 0.00097154,0.00021114,-0.00062555,-0.00040221,-0.00001161,0.00017242,0
 .00026361,-0.00005327,-0.00000196,-0.00004779,-0.00002674,-0.00000723,
 -0.00005469,-0.00004295,0.00002239,-0.00002878,0.00004732,0.00001230,0
 .00003971,0.00002663,-0.00003546,0.00033787,0.00028345,0.00040148,0.00
 315961,0.00326154,-0.00102989,-0.00064118,-0.00265401,-0.00073600,-0.0
 0027092,-0.00015438,0.00028038,0.00025785,-0.00010963,0.00001460,0.000
 09146,-0.00006772,0.00000856,-0.00016476,0.00011322,0.00005776,-0.0004
 5983,-0.00001264,-0.00020388,0.00001822,-0.00003249,-0.00001289,-0.000
 03060,0.00011207,0.00016874,0.00005426,-0.00002308,-0.00002264,-0.0043
 4386,-0.00008549,0.00282242,-0.01305833,-0.00633844,0.00370171,0.00953
 728,-0.00191077,-0.00604374,-0.01080989,0.00082820,0.00555066,-0.01053
 487,-0.00098658,0.00607196,0.01105895,0.01421468,0.01158813,0.01588622
 ,-0.01289565,-0.10406508,0.04048766,-0.00751968,-0.03307071,-0.0005596
 6,0.00030634,0.00017118,-0.00010701,0.00008749,-0.00012704,0.00019992,
 0.00039722,-0.00036379,-0.00004508,-0.00008260,0.00021202,0.00357442,-
 0.00454466,-0.00553106,-0.00075018,0.00065553,-0.00047407,0.00082617,-
 0.00028513,0.00027986,-0.00095857,0.00183884,-0.00162638,-0.00209867,-
 0.00116290,-0.00357107,-0.00107941,-0.00089231,0.00103068,0.03243088,0
 .27584475,0.66183782,-0.00024146,-0.00033607,0.00006073,-0.00028328,0.
 00011711,0.00015802,-0.00006481,0.00018498,0.00004439,0.00096230,0.000
 18429,-0.00062172,-0.00042237,-0.00002916,0.00017898,0.00027666,-0.000
 05269,0.00000021,-0.00004845,-0.00002694,-0.00001201,-0.00005493,-0.00
 004248,0.00001874,-0.00003003,0.00004777,0.00001076,0.00003379,0.00002
 411,-0.00004439,0.00033592,0.00031524,0.00043987,0.00347042,0.00381897
 ,-0.00101913,-0.00065749,-0.00288203,-0.00068361,-0.00024372,-0.000167
 70,0.00029552,0.00022632,-0.00009694,0.00001668,0.00009383,-0.00006586
 ,0.00000832,-0.00016641,0.00010684,0.00004110,-0.00048952,-0.00001592,
 -0.00021376,0.00001825,-0.00003610,-0.00001295,-0.00003127,0.00011396,
 0.00017892,0.00005566,-0.00002033,-0.00002703,-0.00462765,-0.00039703,
 0.00364234,-0.00947405,0.00147977,0.00532969,0.00742904,-0.00232602,-0
 .00459839,-0.00855018,0.00073688,0.00496069,-0.00623382,0.00191927,0.0
 0391536,0.00545409,0.00492472,0.00802608,-0.08092827,-0.02199632,0.000
 35473,0.00646213,-0.00839322,-0.01577732,-0.00061492,0.00034218,0.0001
 5839,-0.00010376,0.00011437,-0.00010672,0.00022102,0.00034576,-0.00034
 892,-0.00003546,-0.00009890,0.00018812,0.00216009,-0.00381580,-0.00642
 431,-0.00065778,0.00053557,-0.00033428,0.00065952,-0.00017752,0.000334
 52,-0.00243730,0.00059978,0.00222225,0.00081474,-0.00013403,-0.0002933
 1,-0.00094786,0.00020114,0.00024695,-0.37097804,-0.13715209,-0.1118032
 0,0.44647666,-0.00007323,-0.00010207,0.00001831,-0.00008774,0.00003619
 ,0.00004884,-0.00001765,0.00006103,0.00001376,0.00027785,0.00005418,-0
 .00018330,-0.00012380,-0.00001280,0.00005647,0.00008379,-0.00001751,0.
 00000191,-0.00001510,-0.00000840,-0.00000399,-0.00001649,-0.00001302,0
 .00000569,-0.00000955,0.00001476,0.00000345,0.00001038,0.00000747,-0.0
 0001418,0.00010803,0.00010065,0.00014538,0.00112972,0.00117094,-0.0003
 1148,-0.00020843,-0.00086959,-0.00030377,-0.00007914,-0.00005442,0.000
 09348,0.00007403,-0.00003292,0.00000454,0.00002955,-0.00001998,0.00000
 425,-0.00005189,0.00003313,0.00001366,-0.00015525,-0.00000525,-0.00006
 702,0.00000479,-0.00001145,-0.00000455,-0.00000828,0.00003684,0.000055
 99,0.00001746,-0.00000476,-0.00000773,-0.00148842,-0.00005545,0.001114
 65,-0.00337220,0.00039144,0.00336412,0.00274886,-0.00003396,-0.0015308
 8,-0.00261437,0.00013461,0.00162831,-0.00104197,0.00083023,0.00237581,
 0.00183391,0.00471790,-0.00210810,-0.02377625,0.01608199,0.00256518,0.
 00588028,-0.00370690,-0.00988494,-0.00018824,0.00011689,0.00005685,-0.
 00003824,0.00003266,-0.00002756,0.00006691,0.00010969,-0.00010376,-0.0
 0001164,-0.00002960,0.00005701,0.00074825,-0.00138391,-0.00208602,-0.0
 0023074,0.00019027,-0.00013935,0.00025713,-0.00001977,0.00018672,0.001
 38512,0.00124617,0.00104749,0.00062720,0.00027251,0.00019495,0.0000697
 3,-0.00076198,0.00042040,-0.12692847,-0.16499753,-0.07896924,0.1922364
 8,0.16656722,-0.00003398,-0.00004941,0.00000875,-0.00004471,0.00001781
 ,0.00002546,-0.00000414,0.00003695,0.00000846,0.00010621,0.00001542,-0
 .00007599,-0.00004835,-0.00001368,0.00002867,0.00003968,-0.00001082,0.
 00000336,-0.00000711,-0.00000399,-0.00000296,-0.00000805,-0.00000598,0
 .00000237,-0.00000435,0.00000687,0.00000102,0.00000318,0.00000189,-0.0
 0000789,0.00005479,0.00006170,0.00008641,0.00061776,0.00068123,-0.0001
 6137,-0.00009664,-0.00045844,-0.00024420,-0.00004047,-0.00002719,0.000
 04908,0.00003868,-0.00001577,0.00000286,0.00001435,-0.00001124,0.00000
 121,-0.00002540,0.00001557,0.00000731,-0.00008314,-0.00000302,-0.00003
 245,0.00000171,-0.00000628,-0.00000187,-0.00000166,0.00002012,0.000028
 91,0.00000732,-0.00000004,-0.00000373,-0.00085534,-0.00011873,0.000632
 16,-0.00221045,0.00168140,0.00257597,0.00166968,-0.00011843,-0.0002340
 5,-0.00097099,0.00004446,0.00080574,0.00047524,0.00163227,0.00147708,0
 .00274702,-0.00340043,-0.00015582,-0.00255704,0.00198693,0.02325337,0.
 00739320,-0.00450366,-0.00832554,-0.00011247,0.00007227,0.00003171,-0.
 00001798,0.00002071,-0.00000114,0.00002884,0.00005090,-0.00005673,-0.0
 0000104,-0.00001522,0.00002372,0.00040352,-0.00070678,-0.00131107,-0.0
 0009356,0.00008413,-0.00009095,0.00006103,0.00004395,0.00015281,0.0031
 7664,0.00108714,0.00119914,0.00071477,0.00038316,0.00043298,0.00014681
 ,0.00039599,-0.00044386,-0.09619993,-0.07539294,-0.16715609,0.15210325
 ,0.14005005,0.19260924,-0.00013143,-0.00018859,0.00003223,-0.00016331,
 0.00006806,0.00008961,-0.00003187,0.00010494,0.00001272,0.00047752,0.0
 0007084,-0.00032259,-0.00024430,-0.00002301,0.00010049,0.00015147,-0.0
 0003107,0.00000258,-0.00002564,-0.00001442,-0.00000739,-0.00002890,-0.
 00002276,0.00001167,-0.00001545,0.00002555,0.00000695,0.00001895,0.000
 01074,-0.00002047,0.00017478,0.00015983,0.00027334,0.00209680,0.002361
 16,-0.00039920,-0.00039453,-0.00169694,-0.00036602,-0.00008686,-0.0000
 9109,0.00017056,0.00007462,-0.00003144,0.00000243,0.00005109,-0.000038
 60,0.00000411,-0.00008891,0.00004511,0.00000297,-0.00026528,-0.0000007
 1,-0.00011250,0.00000970,-0.00001939,-0.00001155,-0.00002029,0.0000586
 0,0.00009631,0.00003108,-0.00001708,-0.00001808,-0.00262543,-0.0002036
 7,0.00228138,-0.00367720,0.00280962,0.00486732,0.00310790,0.00020981,0
 .00023389,-0.00312103,0.00006112,0.00134172,0.00022447,0.00166952,0.00
 196782,-0.00402548,0.00017052,0.00195548,-0.00219912,0.02458646,0.0449
 2636,-0.00288909,-0.00497226,-0.00542159,-0.00030671,0.00022899,0.0001
 1680,-0.00005349,0.00006779,-0.00005432,0.00014230,0.00012855,-0.00015
 070,-0.00002153,-0.00006327,0.00007569,0.00048144,-0.00207302,-0.00348
 738,-0.00039299,0.00028507,-0.00015467,0.00036641,-0.00013266,0.000164
 25,0.00036288,0.00024471,0.00043525,-0.00203962,0.00152599,0.00310769,
 -0.00020735,-0.00008720,-0.00009224,-0.13284874,0.01545151,0.03963401,
 0.01317240,-0.04705237,-0.06638689,0.13496077,0.00012333,0.00017840,-0
 .00002876,0.00015953,-0.00006248,-0.00008305,0.00002544,-0.00011330,-0
 .00001335,-0.00044672,-0.00008105,0.00029142,0.00021053,0.00002716,-0.
 00009427,-0.00014047,0.00003160,0.00000011,0.00002466,0.00001410,0.000
 00508,0.00002900,0.00002234,-0.00001291,0.00001467,-0.00002470,-0.0000
 0670,-0.00001980,-0.00001066,0.00001710,-0.00017389,-0.00017093,-0.000
 23973,-0.00189573,-0.00215134,0.00049382,0.00032120,0.00148403,0.00046
 575,0.00011555,0.00008643,-0.00015805,-0.00011022,0.00004593,-0.000003
 74,-0.00004755,0.00003851,-0.00000304,0.00008587,-0.00005208,-0.000017
 93,0.00026333,0.00000704,0.00010594,-0.00001121,0.00001650,0.00001007,
 0.00001741,-0.00005873,-0.00009369,-0.00002941,0.00001537,0.00001576,0
 .00242479,0.00042995,-0.00201814,0.00563173,-0.00153007,-0.00230908,-0
 .00447442,0.00043504,0.00103395,0.00425384,0.00003746,-0.00194710,0.00
 272380,-0.00135121,-0.00165060,-0.00896395,-0.00155608,-0.00095119,0.0
 2084574,0.00136191,-0.03608650,-0.00305205,0.00761973,0.00463731,0.000
 32043,-0.00020027,-0.00009220,0.00004258,-0.00006259,0.00005880,-0.000
 11842,-0.00017214,0.00017165,0.00001323,0.00005105,-0.00009288,-0.0007
 5285,0.00128223,0.00380781,0.00025557,-0.00019971,0.00011560,-0.000306
 77,0.00007437,-0.00012599,-0.00038767,0.00061652,0.00056122,0.00088232
 ,0.00134605,0.00135462,0.00009245,0.00002166,0.00005612,0.00572509,-0.
 20185540,-0.17933050,-0.03008604,-0.02006550,-0.06352889,0.00641508,0.
 21447487,0.00022015,0.00031005,-0.00005165,0.00027398,-0.00010804,-0.0
 0014469,0.00005293,-0.00018946,-0.00002588,-0.00080879,-0.00014655,0.0
 0053449,0.00038777,0.00003260,-0.00016792,-0.00024822,0.00005827,-0.00
 000400,0.00004453,0.00002532,0.00000931,0.00005038,0.00003978,-0.00002
 220,0.00002646,-0.00004421,-0.00001231,-0.00003594,-0.00002084,0.00003
 197,-0.00030214,-0.00025750,-0.00042731,-0.00326921,-0.00355867,0.0008
 7056,0.00060283,0.00258985,0.00076589,0.00019862,0.00015145,-0.0002777
 3,-0.00019257,0.00008208,-0.00000694,-0.00008680,0.00006822,-0.0000084
 0,0.00015255,-0.00009028,-0.00003272,0.00044819,0.00000510,0.00019132,
 -0.00001810,0.00003061,0.00001618,0.00003135,-0.00010148,-0.00016224,-
 0.00005212,0.00002969,0.00002751,0.00412230,0.00014368,-0.00328404,0.0
 0896091,-0.00086880,-0.00579169,-0.00790700,0.00002184,0.00163033,0.00
 764418,0.00004237,-0.00338414,0.00400074,-0.00174323,-0.00371957,-0.01
 205039,-0.00383437,-0.00122674,0.03927806,-0.03765266,-0.04947796,-0.0
 0133845,0.00495369,0.01474706,0.00051782,-0.00033871,-0.00018226,0.000
 09968,-0.00011305,0.00011605,-0.00021208,-0.00030256,0.00029138,0.0000
 4162,0.00009374,-0.00016536,-0.00157959,0.00401182,0.00506817,0.000698
 41,-0.00053276,0.00031186,-0.00065282,0.00022429,-0.00028276,-0.000579
 62,0.00036370,0.00094612,0.00212012,0.00124420,0.00111698,0.00020195,0
 .00015072,0.00007911,0.02467997,-0.18267465,-0.36994443,-0.04061361,-0
 .05778139,-0.04514205,-0.02490803,0.27568615,0.45719067\\0.00000027,0.
 00000296,-0.00000018,-0.00000489,-0.00000040,0.00000424,0.00000627,0.0
 0001157,-0.00000242,-0.00001381,-0.00001204,0.00000814,0.00000373,0.00
 000215,0.00000272,0.00000032,-0.00000058,0.00000353,0.00000097,0.00000
 135,0.00000381,-0.00000020,0.00000213,0.00000135,0.00000161,0.00000230
 ,0.00000137,-0.00000099,-0.00000084,0.00000089,0.00001375,0.00000870,0
 .00000209,-0.00005379,-0.00001773,0.00001887,0.00000537,0.00000131,-0.
 00000830,0.00000469,0.00000665,0.00000288,-0.00000090,0.00000214,-0.00
 000003,0.00000199,-0.00000333,0.00000085,0.00000002,-0.00000059,0.0000
 0094,-0.00000026,-0.00000197,-0.00000282,0.00000183,0.00000306,0.00000
 198,0.00000148,0.00000133,0.00000320,0.00000187,0.00000090,-0.00000077
 ,0.00004497,0.00001729,-0.00002864,-0.00002717,-0.00001105,-0.00002148
 ,0.00004712,-0.00002270,-0.00001565,-0.00003337,0.00001003,0.00002097,
 -0.00001309,0.00000560,0.00001101,0.00001443,-0.00000187,-0.00000301,-
 0.00000476,-0.00000780,-0.00000947,0.00000645,0.00001264,-0.00000543,0
 .00001017,-0.00001393,-0.00000994,-0.00000161,0.00000056,0.00000166,-0
 .00000044,0.00000563,-0.00000013,-0.00000191,0.00000147,0.00000032,0.0
 0000946,0.00001514,0.00002076,-0.00000866,0.00000080,0.00000391,0.0000
 0361,-0.00000832,-0.00000055,-0.00000186,-0.00000594,0.00000057,-0.000
 00748,-0.00000130,0.,-0.00000178,0.00000023,0.00000090,-0.00000526,-0.
 00000154,0.00000066,0.00000235,-0.00000262,-0.00000570,-0.00000052,-0.
 00000139,-0.00000311\\\@


 A MATHEMATICIAN IS A MACHINE FOR TURNING COFFEE INTO THEOREMS.
     -- QUOTED BY PAUL ERDOS
 Job cpu time:       1 days 21 hours 35 minutes 44.1 seconds.
 Elapsed time:       0 days  1 hours 54 minutes  4.5 seconds.
 File lengths (MBytes):  RWF=   2467 Int=      0 D2E=      0 Chk=     70 Scr=      1
 Normal termination of Gaussian 16 at Sat Mar  9 00:58:40 2024.
