 Entering Gaussian System, Link 0=/s/ls4/groups/g0130/bin/g16/g16
 Input=mc1_s1_m062x.gjf
 Output=mc1_s1_m062x.log
 Initial command:
 /s/ls4/groups/g0130/bin/g16/l1.exe "/dev/shm/scratch_artd/Gau-42091.inp" -scrdir="/dev/shm/scratch_artd/"
 Entering Link 1 = /s/ls4/groups/g0130/bin/g16/l1.exe PID=     42092.
  
 Copyright (c) 1988,1990,1992,1993,1995,1998,2003,2009,2016,
            Gaussian, Inc.  All Rights Reserved.
  
 This is part of the Gaussian(R) 16 program.  It is based on
 the Gaussian(R) 09 system (copyright 2009, Gaussian, Inc.),
 the Gaussian(R) 03 system (copyright 2003, Gaussian, Inc.),
 the Gaussian(R) 98 system (copyright 1998, Gaussian, Inc.),
 the Gaussian(R) 94 system (copyright 1995, Gaussian, Inc.),
 the Gaussian 92(TM) system (copyright 1992, Gaussian, Inc.),
 the Gaussian 90(TM) system (copyright 1990, Gaussian, Inc.),
 the Gaussian 88(TM) system (copyright 1988, Gaussian, Inc.),
 the Gaussian 86(TM) system (copyright 1986, Carnegie Mellon
 University), and the Gaussian 82(TM) system (copyright 1983,
 Carnegie Mellon University). Gaussian is a federally registered
 trademark of Gaussian, Inc.
  
 This software contains proprietary and confidential information,
 including trade secrets, belonging to Gaussian, Inc.
  
 This software is provided under written license and may be
 used, copied, transmitted, or stored only in accord with that
 written license.
  
 The following legend is applicable only to US Government
 contracts under FAR:
  
                    RESTRICTED RIGHTS LEGEND
  
 Use, reproduction and disclosure by the US Government is
 subject to restrictions as set forth in subparagraphs (a)
 and (c) of the Commercial Computer Software - Restricted
 Rights clause in FAR 52.227-19.
  
 Gaussian, Inc.
 340 Quinnipiac St., Bldg. 40, Wallingford CT 06492
  
  
 ---------------------------------------------------------------
 Warning -- This program may not be used in any manner that
 competes with the business of Gaussian, Inc. or will provide
 assistance to any competitor of Gaussian, Inc.  The licensee
 of this program is prohibited from giving any competitor of
 Gaussian, Inc. access to this program.  By using this program,
 the user acknowledges that Gaussian, Inc. is engaged in the
 business of creating and licensing software in the field of
 computational chemistry and represents and warrants to the
 licensee that it is not a competitor of Gaussian, Inc. and that
 it will not use this program in any manner prohibited above.
 ---------------------------------------------------------------
  

 Cite this work as:
 Gaussian 16, Revision A.03,
 M. J. Frisch, G. W. Trucks, H. B. Schlegel, G. E. Scuseria, 
 M. A. Robb, J. R. Cheeseman, G. Scalmani, V. Barone, 
 G. A. Petersson, H. Nakatsuji, X. Li, M. Caricato, A. V. Marenich, 
 J. Bloino, B. G. Janesko, R. Gomperts, B. Mennucci, H. P. Hratchian, 
 J. V. Ortiz, A. F. Izmaylov, J. L. Sonnenberg, D. Williams-Young, 
 F. Ding, F. Lipparini, F. Egidi, J. Goings, B. Peng, A. Petrone, 
 T. Henderson, D. Ranasinghe, V. G. Zakrzewski, J. Gao, N. Rega, 
 G. Zheng, W. Liang, M. Hada, M. Ehara, K. Toyota, R. Fukuda, 
 J. Hasegawa, M. Ishida, T. Nakajima, Y. Honda, O. Kitao, H. Nakai, 
 T. Vreven, K. Throssell, J. A. Montgomery, Jr., J. E. Peralta, 
 F. Ogliaro, M. J. Bearpark, J. J. Heyd, E. N. Brothers, K. N. Kudin, 
 V. N. Staroverov, T. A. Keith, R. Kobayashi, J. Normand, 
 K. Raghavachari, A. P. Rendell, J. C. Burant, S. S. Iyengar, 
 J. Tomasi, M. Cossi, J. M. Millam, M. Klene, C. Adamo, R. Cammi, 
 J. W. Ochterski, R. L. Martin, K. Morokuma, O. Farkas, 
 J. B. Foresman, and D. J. Fox, Gaussian, Inc., Wallingford CT, 2016.
 
 ******************************************
 Gaussian 16:  ES64L-G16RevA.03 25-Dec-2016
                 9-Mar-2024 
 ******************************************
 %nprocshared=24
 Will use up to   24 processors via shared memory.
 %mem=20GB
 %oldchk=mc1_gs_m062x.chk
 %chk=mc1_s1_m062x.chk
 Copying data from "mc1_gs_m062x.chk" to current chk file "mc1_s1_m062x.chk"
 IOpt=  2 FromEx=T IUOpen= 4 IOptOp= 5 NList=   0 IFRang= 0 IUIn= 4 IUOut= 2.
 ----------------------------------------------------------------------
 #p M062X/def2TZVP SCRF(PCM,Solvent=acetone) TD(Singlets,NStates=5, roo
 t=1) integral=ultrafine opt guess=(read) geom=(allcheck) gfinput
 ----------------------------------------------------------------------
 1/18=20,19=15,26=6,29=7,38=1/1,3;
 2/9=110,12=2,40=1/2;
 3/5=44,7=101,11=9,14=-4,24=10,25=1,30=1,70=2201,71=1,72=19,74=-55,75=-5,116=-2/1,2,3,8;
 4/5=1/1;
 5/5=2,38=6,53=19/2;
 8/6=1,10=1,107=1,108=5/1;
 9/8=1,15=2,41=5,42=1,48=1,70=2/14;
 10/5=4,28=1/2;
 6/7=2,8=2,9=2,10=2/1;
 7/12=6,13=5,14=1/1,2,3,16;
 1/18=20,19=15,26=6/3(2);
 2/9=110/2;
 99//99;
 2/9=110/2;
 3/5=44,7=101,11=9,14=-2,25=1,30=1,70=2205,71=1,72=19,74=-55,75=-5/1,2,3,8;
 4/5=5,16=3,69=1/1;
 5/5=2,38=5,53=19/2;
 8/6=1,10=1,107=1,108=5/1;
 9/8=1,15=2,41=5,42=1,48=1,49=4,70=2/14;
 10/5=4,28=1/2;
 7/12=6,13=5,14=1/1,2,3,16;
 1/18=20,19=15,26=6/3(-8);
 2/9=110/2;
 6/7=2,8=2,9=2,10=2/1;
 99//99;
 Leave Link    1 at Sat Mar  9 02:12:29 2024, MaxMem=  2684354560 cpu:               6.4 elap:               0.3
 (Enter /s/ls4/groups/g0130/bin/g16/l101.exe)
 Structure from the checkpoint file:  "mc1_s1_m062x.chk"
 -----
 TITLE
 -----
 Charge =  0 Multiplicity = 1
 Redundant internal coordinates found in file.  (old form).
 C,0,-2.4003894314,2.2977710318,0.6008914939
 C,0,-1.5818710609,1.2203106669,0.2780349164
 C,0,-0.2677977283,1.4139757268,-0.139070596
 C,0,0.167785582,2.7215286433,-0.2150570937
 C,0,-0.6315759877,3.8108417936,0.0946382155
 C,0,-1.9309258244,3.6074402224,0.5134987245
 H,0,-3.4173974981,2.1155092983,0.9212747407
 H,0,-1.9705451795,0.2134398003,0.3487688289
 H,0,-2.5743281796,4.4415466013,0.7646922589
 H,0,0.3665931787,0.5776120024,-0.3977796615
 C,0,0.1697555681,5.0695953428,-0.101461769
 C,0,1.4800848717,4.5051129944,-0.6117589154
 N,0,1.4494375227,3.19809633,-0.597402347
 C,0,-0.4515706181,6.0116595173,-1.1395724845
 H,0,-0.584342803,5.4993811272,-2.0903724163
 H,0,0.1947477966,6.8766707408,-1.2924061597
 H,0,-1.4175445117,6.358424364,-0.7717114724
 C,0,0.3914117513,5.8037535068,1.2323337609
 H,0,0.8810500692,5.1596219433,1.9627757803
 H,0,-0.577824037,6.1058346755,1.6288819123
 H,0,0.9932106203,6.7000528703,1.0837254482
 C,0,2.604260936,5.3237821905,-0.9510718916
 C,0,3.4567765341,4.3698608194,-3.1574294311
 C,0,2.2343570605,3.7878065194,-3.7019168573
 O,0,1.1134993874,3.9452876962,-3.1763972224
 C,0,2.3868914338,3.017825008,-4.918842083
 C,0,3.5836129963,2.8559625945,-5.5400976731
 C,0,4.7335260691,3.4747052138,-5.0045611924
 C,0,4.6564298445,4.2286489808,-3.8512652996
 C,0,2.533184545,2.2909827215,-0.9203988832
 H,0,3.4751975991,2.8261949371,-0.8613421267
 H,0,2.393924018,1.8977938225,-1.9277602058
 H,0,2.5235603282,1.4753037411,-0.2010020354
 C,0,3.4766682385,5.1995062854,-1.9794256832
 H,0,2.7374442888,6.174280605,-0.2914639047
 H,0,4.3157642156,5.8887402109,-1.941862099
 H,0,5.5526732764,4.7040513016,-3.4744554608
 H,0,3.6709191861,2.2705625035,-6.4445027045
 H,0,1.4890159557,2.5661728822,-5.3207239432
 N,0,5.9925285337,3.3290928171,-5.6701319119
 O,0,6.9788175063,3.8799392114,-5.2016987588
 O,0,6.0394139459,2.6551307387,-6.6893437972
 Recover connectivity data from disk.
 ITRead=  0  0  0  0  0  0  0  0  0  0  0  0  0  0  0  0  0  0  0  0
 ITRead=  0  0  0  0  0  0  0  0  0  0  0  0  0  0  0  0  0  0  0  0
 ITRead=  0  0
 MicOpt= -1 -1 -1 -1 -1 -1 -1 -1 -1 -1 -1 -1 -1 -1 -1 -1 -1 -1 -1 -1
 MicOpt= -1 -1 -1 -1 -1 -1 -1 -1 -1 -1 -1 -1 -1 -1 -1 -1 -1 -1 -1 -1
 MicOpt= -1 -1
 NAtoms=     42 NQM=       42 NQMF=       0 NMMI=      0 NMMIF=      0
                NMic=       0 NMicF=      0.
                    Isotopes and Nuclear Properties:
 (Nuclear quadrupole moments (NQMom) in fm**2, nuclear magnetic moments (NMagM)
  in nuclear magnetons)

  Atom         1           2           3           4           5           6           7           8           9          10
 IAtWgt=          12          12          12          12          12          12           1           1           1           1
 AtmWgt=  12.0000000  12.0000000  12.0000000  12.0000000  12.0000000  12.0000000   1.0078250   1.0078250   1.0078250   1.0078250
 NucSpn=           0           0           0           0           0           0           1           1           1           1
 AtZEff=   3.6000000   3.6000000   3.6000000   3.6000000   3.6000000   3.6000000   1.0000000   1.0000000   1.0000000   1.0000000
 NQMom=    0.0000000   0.0000000   0.0000000   0.0000000   0.0000000   0.0000000   0.0000000   0.0000000   0.0000000   0.0000000
 NMagM=    0.0000000   0.0000000   0.0000000   0.0000000   0.0000000   0.0000000   2.7928460   2.7928460   2.7928460   2.7928460
 AtZNuc=   6.0000000   6.0000000   6.0000000   6.0000000   6.0000000   6.0000000   1.0000000   1.0000000   1.0000000   1.0000000

  Atom        11          12          13          14          15          16          17          18          19          20
 IAtWgt=          12          12          14          12           1           1           1          12           1           1
 AtmWgt=  12.0000000  12.0000000  14.0030740  12.0000000   1.0078250   1.0078250   1.0078250  12.0000000   1.0078250   1.0078250
 NucSpn=           0           0           2           0           1           1           1           0           1           1
 AtZEff=   3.6000000   3.6000000   4.5500000   3.6000000   1.0000000   1.0000000   1.0000000   3.6000000   1.0000000   1.0000000
 NQMom=    0.0000000   0.0000000   2.0440000   0.0000000   0.0000000   0.0000000   0.0000000   0.0000000   0.0000000   0.0000000
 NMagM=    0.0000000   0.0000000   0.4037610   0.0000000   2.7928460   2.7928460   2.7928460   0.0000000   2.7928460   2.7928460
 AtZNuc=   6.0000000   6.0000000   7.0000000   6.0000000   1.0000000   1.0000000   1.0000000   6.0000000   1.0000000   1.0000000

  Atom        21          22          23          24          25          26          27          28          29          30
 IAtWgt=           1          12          12          12          16          12          12          12          12          12
 AtmWgt=   1.0078250  12.0000000  12.0000000  12.0000000  15.9949146  12.0000000  12.0000000  12.0000000  12.0000000  12.0000000
 NucSpn=           1           0           0           0           0           0           0           0           0           0
 AtZEff=   1.0000000   3.6000000   3.6000000   3.6000000   5.6000000   3.6000000   3.6000000   3.6000000   3.6000000   3.6000000
 NQMom=    0.0000000   0.0000000   0.0000000   0.0000000   0.0000000   0.0000000   0.0000000   0.0000000   0.0000000   0.0000000
 NMagM=    2.7928460   0.0000000   0.0000000   0.0000000   0.0000000   0.0000000   0.0000000   0.0000000   0.0000000   0.0000000
 AtZNuc=   1.0000000   6.0000000   6.0000000   6.0000000   8.0000000   6.0000000   6.0000000   6.0000000   6.0000000   6.0000000

  Atom        31          32          33          34          35          36          37          38          39          40
 IAtWgt=           1           1           1          12           1           1           1           1           1          14
 AtmWgt=   1.0078250   1.0078250   1.0078250  12.0000000   1.0078250   1.0078250   1.0078250   1.0078250   1.0078250  14.0030740
 NucSpn=           1           1           1           0           1           1           1           1           1           2
 AtZEff=   1.0000000   1.0000000   1.0000000   3.6000000   1.0000000   1.0000000   1.0000000   1.0000000   1.0000000   4.5500000
 NQMom=    0.0000000   0.0000000   0.0000000   0.0000000   0.0000000   0.0000000   0.0000000   0.0000000   0.0000000   2.0440000
 NMagM=    2.7928460   2.7928460   2.7928460   0.0000000   2.7928460   2.7928460   2.7928460   2.7928460   2.7928460   0.4037610
 AtZNuc=   1.0000000   1.0000000   1.0000000   6.0000000   1.0000000   1.0000000   1.0000000   1.0000000   1.0000000   7.0000000

  Atom        41          42
 IAtWgt=          16          16
 AtmWgt=  15.9949146  15.9949146
 NucSpn=           0           0
 AtZEff=   5.6000000   5.6000000
 NQMom=    0.0000000   0.0000000
 NMagM=    0.0000000   0.0000000
 AtZNuc=   8.0000000   8.0000000
 Leave Link  101 at Sat Mar  9 02:12:30 2024, MaxMem=  2684354560 cpu:               7.4 elap:               0.3
 (Enter /s/ls4/groups/g0130/bin/g16/l103.exe)

 GradGradGradGradGradGradGradGradGradGradGradGradGradGradGradGradGradGrad
 Berny optimization.
 Initialization pass.
                           ----------------------------
                           !    Initial Parameters    !
                           ! (Angstroms and Degrees)  !
 --------------------------                            --------------------------
 ! Name  Definition              Value          Derivative Info.                !
 --------------------------------------------------------------------------------
 ! R1    R(1,2)                  1.3911         estimate D2E/DX2                !
 ! R2    R(1,6)                  1.394          estimate D2E/DX2                !
 ! R3    R(1,7)                  1.0817         estimate D2E/DX2                !
 ! R4    R(2,3)                  1.3922         estimate D2E/DX2                !
 ! R5    R(2,8)                  1.0816         estimate D2E/DX2                !
 ! R6    R(3,4)                  1.3803         estimate D2E/DX2                !
 ! R7    R(3,10)                 1.0812         estimate D2E/DX2                !
 ! R8    R(4,5)                  1.3862         estimate D2E/DX2                !
 ! R9    R(4,13)                 1.4198         estimate D2E/DX2                !
 ! R10   R(5,6)                  1.3803         estimate D2E/DX2                !
 ! R11   R(5,11)                 1.505          estimate D2E/DX2                !
 ! R12   R(6,9)                  1.083          estimate D2E/DX2                !
 ! R13   R(11,12)                1.5153         estimate D2E/DX2                !
 ! R14   R(11,14)                1.5334         estimate D2E/DX2                !
 ! R15   R(11,18)                1.5385         estimate D2E/DX2                !
 ! R16   R(12,13)                1.3075         estimate D2E/DX2                !
 ! R17   R(12,22)                1.4315         estimate D2E/DX2                !
 ! R18   R(13,30)                1.4497         estimate D2E/DX2                !
 ! R19   R(14,15)                1.0882         estimate D2E/DX2                !
 ! R20   R(14,16)                1.0906         estimate D2E/DX2                !
 ! R21   R(14,17)                1.0903         estimate D2E/DX2                !
 ! R22   R(18,19)                1.09           estimate D2E/DX2                !
 ! R23   R(18,20)                1.0899         estimate D2E/DX2                !
 ! R24   R(18,21)                1.0898         estimate D2E/DX2                !
 ! R25   R(22,34)                1.3543         estimate D2E/DX2                !
 ! R26   R(22,35)                1.0845         estimate D2E/DX2                !
 ! R27   R(23,24)                1.4593         estimate D2E/DX2                !
 ! R28   R(23,29)                1.393          estimate D2E/DX2                !
 ! R29   R(23,34)                1.441          estimate D2E/DX2                !
 ! R30   R(24,25)                1.2479         estimate D2E/DX2                !
 ! R31   R(24,26)                1.4481         estimate D2E/DX2                !
 ! R32   R(26,27)                1.3581         estimate D2E/DX2                !
 ! R33   R(26,39)                1.0824         estimate D2E/DX2                !
 ! R34   R(27,28)                1.4114         estimate D2E/DX2                !
 ! R35   R(27,38)                1.0809         estimate D2E/DX2                !
 ! R36   R(28,29)                1.38           estimate D2E/DX2                !
 ! R37   R(28,40)                1.4315         estimate D2E/DX2                !
 ! R38   R(29,37)                1.0822         estimate D2E/DX2                !
 ! R39   R(30,31)                1.085          estimate D2E/DX2                !
 ! R40   R(30,32)                1.0903         estimate D2E/DX2                !
 ! R41   R(30,33)                1.0876         estimate D2E/DX2                !
 ! R42   R(34,36)                1.0865         estimate D2E/DX2                !
 ! R43   R(40,41)                1.223          estimate D2E/DX2                !
 ! R44   R(40,42)                1.2228         estimate D2E/DX2                !
 ! A1    A(2,1,6)              120.9958         estimate D2E/DX2                !
 ! A2    A(2,1,7)              119.4343         estimate D2E/DX2                !
 ! A3    A(6,1,7)              119.5696         estimate D2E/DX2                !
 ! A4    A(1,2,3)              121.1422         estimate D2E/DX2                !
 ! A5    A(1,2,8)              119.6308         estimate D2E/DX2                !
 ! A6    A(3,2,8)              119.2268         estimate D2E/DX2                !
 ! A7    A(2,3,4)              116.4956         estimate D2E/DX2                !
 ! A8    A(2,3,10)             121.1928         estimate D2E/DX2                !
 ! A9    A(4,3,10)             122.3085         estimate D2E/DX2                !
 ! A10   A(3,4,5)              123.3771         estimate D2E/DX2                !
 ! A11   A(3,4,13)             128.1445         estimate D2E/DX2                !
 ! A12   A(5,4,13)             108.4779         estimate D2E/DX2                !
 ! A13   A(4,5,6)              119.6602         estimate D2E/DX2                !
 ! A14   A(4,5,11)             108.7297         estimate D2E/DX2                !
 ! A15   A(6,5,11)             131.6075         estimate D2E/DX2                !
 ! A16   A(1,6,5)              118.327          estimate D2E/DX2                !
 ! A17   A(1,6,9)              120.5965         estimate D2E/DX2                !
 ! A18   A(5,6,9)              121.076          estimate D2E/DX2                !
 ! A19   A(5,11,12)            101.1126         estimate D2E/DX2                !
 ! A20   A(5,11,14)            112.7255         estimate D2E/DX2                !
 ! A21   A(5,11,18)            111.2753         estimate D2E/DX2                !
 ! A22   A(12,11,14)           110.5655         estimate D2E/DX2                !
 ! A23   A(12,11,18)           110.1899         estimate D2E/DX2                !
 ! A24   A(14,11,18)           110.6175         estimate D2E/DX2                !
 ! A25   A(11,12,13)           110.3919         estimate D2E/DX2                !
 ! A26   A(11,12,22)           123.0855         estimate D2E/DX2                !
 ! A27   A(13,12,22)           126.3506         estimate D2E/DX2                !
 ! A28   A(4,13,12)            111.0789         estimate D2E/DX2                !
 ! A29   A(4,13,30)            121.6532         estimate D2E/DX2                !
 ! A30   A(12,13,30)           127.2675         estimate D2E/DX2                !
 ! A31   A(11,14,15)           110.5953         estimate D2E/DX2                !
 ! A32   A(11,14,16)           110.0016         estimate D2E/DX2                !
 ! A33   A(11,14,17)           109.0255         estimate D2E/DX2                !
 ! A34   A(15,14,16)           108.8608         estimate D2E/DX2                !
 ! A35   A(15,14,17)           109.6604         estimate D2E/DX2                !
 ! A36   A(16,14,17)           108.6686         estimate D2E/DX2                !
 ! A37   A(11,18,19)           111.3254         estimate D2E/DX2                !
 ! A38   A(11,18,20)           108.6358         estimate D2E/DX2                !
 ! A39   A(11,18,21)           110.72           estimate D2E/DX2                !
 ! A40   A(19,18,20)           108.6283         estimate D2E/DX2                !
 ! A41   A(19,18,21)           109.2286         estimate D2E/DX2                !
 ! A42   A(20,18,21)           108.2244         estimate D2E/DX2                !
 ! A43   A(12,22,34)           129.3021         estimate D2E/DX2                !
 ! A44   A(12,22,35)           113.6266         estimate D2E/DX2                !
 ! A45   A(34,22,35)           117.0451         estimate D2E/DX2                !
 ! A46   A(24,23,29)           119.6777         estimate D2E/DX2                !
 ! A47   A(24,23,34)           123.1089         estimate D2E/DX2                !
 ! A48   A(29,23,34)           116.9787         estimate D2E/DX2                !
 ! A49   A(23,24,25)           123.0196         estimate D2E/DX2                !
 ! A50   A(23,24,26)           115.9375         estimate D2E/DX2                !
 ! A51   A(25,24,26)           121.0372         estimate D2E/DX2                !
 ! A52   A(24,26,27)           122.7259         estimate D2E/DX2                !
 ! A53   A(24,26,39)           116.5184         estimate D2E/DX2                !
 ! A54   A(27,26,39)           120.7556         estimate D2E/DX2                !
 ! A55   A(26,27,28)           119.4808         estimate D2E/DX2                !
 ! A56   A(26,27,38)           121.2323         estimate D2E/DX2                !
 ! A57   A(28,27,38)           119.2833         estimate D2E/DX2                !
 ! A58   A(27,28,29)           120.7371         estimate D2E/DX2                !
 ! A59   A(27,28,40)           119.706          estimate D2E/DX2                !
 ! A60   A(29,28,40)           119.5548         estimate D2E/DX2                !
 ! A61   A(23,29,28)           121.3148         estimate D2E/DX2                !
 ! A62   A(23,29,37)           119.685          estimate D2E/DX2                !
 ! A63   A(28,29,37)           118.9926         estimate D2E/DX2                !
 ! A64   A(13,30,31)           109.1621         estimate D2E/DX2                !
 ! A65   A(13,30,32)           109.6343         estimate D2E/DX2                !
 ! A66   A(13,30,33)           108.3776         estimate D2E/DX2                !
 ! A67   A(31,30,32)           109.8194         estimate D2E/DX2                !
 ! A68   A(31,30,33)           109.9747         estimate D2E/DX2                !
 ! A69   A(32,30,33)           109.8483         estimate D2E/DX2                !
 ! A70   A(22,34,23)           131.6599         estimate D2E/DX2                !
 ! A71   A(22,34,36)           114.3952         estimate D2E/DX2                !
 ! A72   A(23,34,36)           113.838          estimate D2E/DX2                !
 ! A73   A(28,40,41)           119.0374         estimate D2E/DX2                !
 ! A74   A(28,40,42)           118.5103         estimate D2E/DX2                !
 ! A75   A(41,40,42)           122.4523         estimate D2E/DX2                !
 ! D1    D(6,1,2,3)              0.1665         estimate D2E/DX2                !
 ! D2    D(6,1,2,8)           -179.6791         estimate D2E/DX2                !
 ! D3    D(7,1,2,3)            179.9581         estimate D2E/DX2                !
 ! D4    D(7,1,2,8)              0.1124         estimate D2E/DX2                !
 ! D5    D(2,1,6,5)              0.1533         estimate D2E/DX2                !
 ! D6    D(2,1,6,9)            179.8869         estimate D2E/DX2                !
 ! D7    D(7,1,6,5)           -179.638          estimate D2E/DX2                !
 ! D8    D(7,1,6,9)              0.0956         estimate D2E/DX2                !
 ! D9    D(1,2,3,4)             -0.139          estimate D2E/DX2                !
 ! D10   D(1,2,3,10)          -179.505          estimate D2E/DX2                !
 ! D11   D(8,2,3,4)            179.7073         estimate D2E/DX2                !
 ! D12   D(8,2,3,10)             0.3413         estimate D2E/DX2                !
 ! D13   D(2,3,4,5)             -0.2112         estimate D2E/DX2                !
 ! D14   D(2,3,4,13)           179.5096         estimate D2E/DX2                !
 ! D15   D(10,3,4,5)           179.1471         estimate D2E/DX2                !
 ! D16   D(10,3,4,13)           -1.1321         estimate D2E/DX2                !
 ! D17   D(3,4,5,6)              0.5355         estimate D2E/DX2                !
 ! D18   D(3,4,5,11)          -179.9865         estimate D2E/DX2                !
 ! D19   D(13,4,5,6)          -179.233          estimate D2E/DX2                !
 ! D20   D(13,4,5,11)            0.245          estimate D2E/DX2                !
 ! D21   D(3,4,13,12)          177.0352         estimate D2E/DX2                !
 ! D22   D(3,4,13,30)           -2.7439         estimate D2E/DX2                !
 ! D23   D(5,4,13,12)           -3.2106         estimate D2E/DX2                !
 ! D24   D(5,4,13,30)          177.0103         estimate D2E/DX2                !
 ! D25   D(4,5,6,1)             -0.4876         estimate D2E/DX2                !
 ! D26   D(4,5,6,9)            179.7802         estimate D2E/DX2                !
 ! D27   D(11,5,6,1)          -179.8264         estimate D2E/DX2                !
 ! D28   D(11,5,6,9)             0.4414         estimate D2E/DX2                !
 ! D29   D(4,5,11,12)            2.2745         estimate D2E/DX2                !
 ! D30   D(4,5,11,14)          120.3341         estimate D2E/DX2                !
 ! D31   D(4,5,11,18)         -114.722          estimate D2E/DX2                !
 ! D32   D(6,5,11,12)         -178.3321         estimate D2E/DX2                !
 ! D33   D(6,5,11,14)          -60.2725         estimate D2E/DX2                !
 ! D34   D(6,5,11,18)           64.6714         estimate D2E/DX2                !
 ! D35   D(5,11,12,13)          -4.3019         estimate D2E/DX2                !
 ! D36   D(5,11,12,22)        -179.808          estimate D2E/DX2                !
 ! D37   D(14,11,12,13)       -123.9183         estimate D2E/DX2                !
 ! D38   D(14,11,12,22)         60.5756         estimate D2E/DX2                !
 ! D39   D(18,11,12,13)        113.4874         estimate D2E/DX2                !
 ! D40   D(18,11,12,22)        -62.0187         estimate D2E/DX2                !
 ! D41   D(5,11,14,15)         -56.1648         estimate D2E/DX2                !
 ! D42   D(5,11,14,16)        -176.4493         estimate D2E/DX2                !
 ! D43   D(5,11,14,17)          64.4831         estimate D2E/DX2                !
 ! D44   D(12,11,14,15)         56.189          estimate D2E/DX2                !
 ! D45   D(12,11,14,16)        -64.0955         estimate D2E/DX2                !
 ! D46   D(12,11,14,17)        176.8369         estimate D2E/DX2                !
 ! D47   D(18,11,14,15)        178.5333         estimate D2E/DX2                !
 ! D48   D(18,11,14,16)         58.2488         estimate D2E/DX2                !
 ! D49   D(18,11,14,17)        -60.8187         estimate D2E/DX2                !
 ! D50   D(5,11,18,19)          56.8769         estimate D2E/DX2                !
 ! D51   D(5,11,18,20)         -62.6963         estimate D2E/DX2                !
 ! D52   D(5,11,18,21)         178.5901         estimate D2E/DX2                !
 ! D53   D(12,11,18,19)        -54.4423         estimate D2E/DX2                !
 ! D54   D(12,11,18,20)       -174.0155         estimate D2E/DX2                !
 ! D55   D(12,11,18,21)         67.2709         estimate D2E/DX2                !
 ! D56   D(14,11,18,19)       -177.0061         estimate D2E/DX2                !
 ! D57   D(14,11,18,20)         63.4208         estimate D2E/DX2                !
 ! D58   D(14,11,18,21)        -55.2928         estimate D2E/DX2                !
 ! D59   D(11,12,13,4)           4.7866         estimate D2E/DX2                !
 ! D60   D(11,12,13,30)       -175.4496         estimate D2E/DX2                !
 ! D61   D(22,12,13,4)        -179.8888         estimate D2E/DX2                !
 ! D62   D(22,12,13,30)         -0.1251         estimate D2E/DX2                !
 ! D63   D(11,12,22,34)       -140.6287         estimate D2E/DX2                !
 ! D64   D(11,12,22,35)         37.4312         estimate D2E/DX2                !
 ! D65   D(13,12,22,34)         44.6033         estimate D2E/DX2                !
 ! D66   D(13,12,22,35)       -137.3368         estimate D2E/DX2                !
 ! D67   D(4,13,30,31)        -161.4574         estimate D2E/DX2                !
 ! D68   D(4,13,30,32)          78.2062         estimate D2E/DX2                !
 ! D69   D(4,13,30,33)         -41.6871         estimate D2E/DX2                !
 ! D70   D(12,13,30,31)         18.8016         estimate D2E/DX2                !
 ! D71   D(12,13,30,32)       -101.5348         estimate D2E/DX2                !
 ! D72   D(12,13,30,33)        138.5719         estimate D2E/DX2                !
 ! D73   D(12,22,34,23)         11.0663         estimate D2E/DX2                !
 ! D74   D(12,22,34,36)       -172.9917         estimate D2E/DX2                !
 ! D75   D(35,22,34,23)       -166.9379         estimate D2E/DX2                !
 ! D76   D(35,22,34,36)          9.004          estimate D2E/DX2                !
 ! D77   D(29,23,24,25)       -175.4922         estimate D2E/DX2                !
 ! D78   D(29,23,24,26)          3.6417         estimate D2E/DX2                !
 ! D79   D(34,23,24,25)         -1.2315         estimate D2E/DX2                !
 ! D80   D(34,23,24,26)        177.9024         estimate D2E/DX2                !
 ! D81   D(24,23,29,28)         -4.207          estimate D2E/DX2                !
 ! D82   D(24,23,29,37)        176.805          estimate D2E/DX2                !
 ! D83   D(34,23,29,28)       -178.8136         estimate D2E/DX2                !
 ! D84   D(34,23,29,37)          2.1984         estimate D2E/DX2                !
 ! D85   D(24,23,34,22)         21.3678         estimate D2E/DX2                !
 ! D86   D(24,23,34,36)       -154.5918         estimate D2E/DX2                !
 ! D87   D(29,23,34,22)       -164.2271         estimate D2E/DX2                !
 ! D88   D(29,23,34,36)         19.8133         estimate D2E/DX2                !
 ! D89   D(23,24,26,27)         -1.0488         estimate D2E/DX2                !
 ! D90   D(23,24,26,39)        178.8828         estimate D2E/DX2                !
 ! D91   D(25,24,26,27)        178.1036         estimate D2E/DX2                !
 ! D92   D(25,24,26,39)         -1.9648         estimate D2E/DX2                !
 ! D93   D(24,26,27,28)         -1.0892         estimate D2E/DX2                !
 ! D94   D(24,26,27,38)        179.6034         estimate D2E/DX2                !
 ! D95   D(39,26,27,28)        178.982          estimate D2E/DX2                !
 ! D96   D(39,26,27,38)         -0.3254         estimate D2E/DX2                !
 ! D97   D(26,27,28,29)          0.6912         estimate D2E/DX2                !
 ! D98   D(26,27,28,40)       -178.7697         estimate D2E/DX2                !
 ! D99   D(38,27,28,29)       -179.9878         estimate D2E/DX2                !
 ! D100  D(38,27,28,40)          0.5513         estimate D2E/DX2                !
 ! D101  D(27,28,29,23)          2.0089         estimate D2E/DX2                !
 ! D102  D(27,28,29,37)       -178.9962         estimate D2E/DX2                !
 ! D103  D(40,28,29,23)       -178.5293         estimate D2E/DX2                !
 ! D104  D(40,28,29,37)          0.4656         estimate D2E/DX2                !
 ! D105  D(27,28,40,41)        179.3774         estimate D2E/DX2                !
 ! D106  D(27,28,40,42)         -0.646          estimate D2E/DX2                !
 ! D107  D(29,28,40,41)         -0.09           estimate D2E/DX2                !
 ! D108  D(29,28,40,42)        179.8866         estimate D2E/DX2                !
 --------------------------------------------------------------------------------
 Trust Radius=3.00D-01 FncErr=5.00D-06 GrdErr=5.00D-06 EigMax=2.50D+02 EigMin=1.00D-04
 Number of steps in this run=    237 maximum allowed number of steps=    252.
 GradGradGradGradGradGradGradGradGradGradGradGradGradGradGradGradGradGrad

 Leave Link  103 at Sat Mar  9 02:12:30 2024, MaxMem=  2684354560 cpu:               0.4 elap:               0.0
 (Enter /s/ls4/groups/g0130/bin/g16/l202.exe)
                          Input orientation:                          
 ---------------------------------------------------------------------
 Center     Atomic      Atomic             Coordinates (Angstroms)
 Number     Number       Type             X           Y           Z
 ---------------------------------------------------------------------
      1          6           0       -2.400389    2.297771    0.600891
      2          6           0       -1.581871    1.220311    0.278035
      3          6           0       -0.267798    1.413976   -0.139071
      4          6           0        0.167786    2.721529   -0.215057
      5          6           0       -0.631576    3.810842    0.094638
      6          6           0       -1.930926    3.607440    0.513499
      7          1           0       -3.417397    2.115509    0.921275
      8          1           0       -1.970545    0.213440    0.348769
      9          1           0       -2.574328    4.441547    0.764692
     10          1           0        0.366593    0.577612   -0.397780
     11          6           0        0.169756    5.069595   -0.101462
     12          6           0        1.480085    4.505113   -0.611759
     13          7           0        1.449438    3.198096   -0.597402
     14          6           0       -0.451571    6.011660   -1.139572
     15          1           0       -0.584343    5.499381   -2.090372
     16          1           0        0.194748    6.876671   -1.292406
     17          1           0       -1.417545    6.358424   -0.771711
     18          6           0        0.391412    5.803754    1.232334
     19          1           0        0.881050    5.159622    1.962776
     20          1           0       -0.577824    6.105835    1.628882
     21          1           0        0.993211    6.700053    1.083725
     22          6           0        2.604261    5.323782   -0.951072
     23          6           0        3.456777    4.369861   -3.157429
     24          6           0        2.234357    3.787807   -3.701917
     25          8           0        1.113499    3.945288   -3.176397
     26          6           0        2.386891    3.017825   -4.918842
     27          6           0        3.583613    2.855963   -5.540098
     28          6           0        4.733526    3.474705   -5.004561
     29          6           0        4.656430    4.228649   -3.851265
     30          6           0        2.533185    2.290983   -0.920399
     31          1           0        3.475198    2.826195   -0.861342
     32          1           0        2.393924    1.897794   -1.927760
     33          1           0        2.523560    1.475304   -0.201002
     34          6           0        3.476668    5.199506   -1.979426
     35          1           0        2.737444    6.174281   -0.291464
     36          1           0        4.315764    5.888740   -1.941862
     37          1           0        5.552673    4.704051   -3.474455
     38          1           0        3.670919    2.270563   -6.444503
     39          1           0        1.489016    2.566173   -5.320724
     40          7           0        5.992529    3.329093   -5.670132
     41          8           0        6.978818    3.879939   -5.201699
     42          8           0        6.039414    2.655131   -6.689344
 ---------------------------------------------------------------------
                    Distance matrix (angstroms):
                    1          2          3          4          5
     1  C    0.000000
     2  C    1.391089   0.000000
     3  C    2.424167   1.392218   0.000000
     4  C    2.727795   2.357561   1.380290   0.000000
     5  C    2.382095   2.765420   2.435554   1.386179   0.000000
     6  C    1.394011   2.423978   2.828980   2.391699   1.380263
     7  H    1.081744   2.141097   3.396537   3.809468   3.364265
     8  H    2.143075   1.081601   2.139772   3.343780   3.846911
     9  H    2.157049   3.405608   3.911912   3.381946   2.149662
    10  H    3.407709   2.160162   1.081151   2.160854   3.419443
    11  C    3.844731   4.246081   3.681905   2.350814   1.505008
    12  C    4.626117   4.577907   3.582409   2.249594   2.332407
    13  N    4.131303   3.723823   2.518343   1.419837   2.277058
    14  C    4.540934   5.122911   4.708872   3.473225   2.529679
    15  H    4.559741   4.991479   4.538537   3.434963   2.761823
    16  H    5.593356   6.133276   5.602247   4.292623   3.464969
    17  H    4.397605   5.246826   5.115635   4.006263   2.803299
    18  C    4.526012   5.080598   4.646015   3.412486   2.512479
    19  H    4.562101   4.941913   4.446063   3.346043   2.756299
    20  H    4.345096   5.167325   5.023476   3.925503   2.761120
    21  H    5.579403   6.108008   5.570277   4.265773   3.459157
    22  C    6.050773   5.989398   4.918806   3.640035   3.721981
    23  C    7.261193   6.863676   5.632069   4.710840   5.253863
    24  C    6.497326   6.082405   4.958803   4.191164   4.756883
    25  O    5.415684   5.159808   4.188183   3.340883   3.709857
    26  C    7.341934   6.781568   5.697888   5.209397   5.905506
    27  C    8.592532   7.950362   6.788504   6.327875   7.101399
    28  C    9.148717   8.536531   7.275496   6.659776   7.409396
    29  C    8.564385   8.063350   6.778701   5.970038   6.611182
    30  C    5.162802   4.417722   3.037288   2.505592   3.654584
    31  H    6.077819   5.426876   4.065225   3.371589   4.330014
    32  H    5.435026   4.596897   3.243186   2.927043   4.111386
    33  H    5.056161   4.141143   2.792718   2.665136   3.936626
    34  C    7.043998   6.820480   5.633664   4.494672   4.807057
    35  H    6.497766   6.597168   5.631626   4.304704   4.133427
    36  H    8.029158   7.842466   6.654518   5.497164   5.739440
    37  H    9.254720   8.781763   7.471765   6.599325   7.195915
    38  H    9.300490   8.595775   7.483696   7.161097   7.977737
    39  H    7.089784   6.525932   5.591376   5.276137   5.947458
    40  N   10.527603   9.858964   8.570414   8.003412   8.794511
    41  O   11.141940  10.506498   9.177397   8.520485   9.272219
    42  O   11.158204  10.425309   9.177552   8.740527   9.584372
                    6          7          8          9         10
     6  C    0.000000
     7  H    2.145166   0.000000
     8  H    3.398227   2.457440   0.000000
     9  H    1.082958   2.479059   4.291204   0.000000
    10  H    3.910100   4.292274   2.480357   4.993030   0.000000
    11  C    2.632287   4.758180   5.325959   2.945278   4.506047
    12  C    3.702299   5.660895   5.589984   4.282163   4.087899
    13  N    3.581692   5.211953   4.636776   4.426303   2.842418
    14  C    3.271300   5.312552   6.175904   3.255392   5.545135
    15  H    3.488964   5.342921   5.984325   3.637369   5.290837
    16  H    4.297400   6.373118   7.195874   4.222471   6.364592
    17  H    3.079487   4.986777   6.270735   2.715346   6.061416
    18  C    3.276243   5.311020   6.132792   3.296955   5.474527
    19  H    3.523759   5.369171   5.933071   3.727020   5.179933
    20  H    3.052366   4.948392   6.188593   2.739107   5.963265
    21  H    4.294180   6.363796   7.169390   4.234379   6.330228
    22  C    5.065443   7.075243   6.980977   5.526298   5.276307
    23  C    6.563866   8.304950   7.682778   7.194609   5.616587
    24  C    5.928899   7.490848   6.845828   6.595561   4.971037
    25  O    4.795623   6.377149   5.988724   5.420197   4.429427
    26  C    6.964303   8.283170   7.389151   7.677450   5.520530
    27  C    8.223192   9.555718   8.515301   8.954591   6.479470
    28  C    8.653411  10.168604   9.178157   9.360759   6.977513
    29  C    7.926558   9.614010   8.813568   8.581157   6.607521
    30  C    4.870052   6.231531   5.119624   5.792335   2.811208
    31  H    5.632646   7.154765   6.160111   6.469166   3.864510
    32  H    5.252329   6.475790   5.202713   6.197056   2.862480
    33  H    4.989886   6.079831   4.700163   5.976590   2.344585
    34  C    6.163718   8.090318   7.742963   6.687245   5.791034
    35  H    5.387979   7.471709   7.622774   5.686190   6.079057
    36  H    7.089024   9.068441   8.773466   7.542757   6.796192
    37  H    8.550473  10.319165   9.559365   9.169920   7.306768
    38  H    9.032258  10.223647   9.066775   9.782064   7.095598
    39  H    6.842397   7.952266   7.046067   7.553812   5.426747
    40  N   10.054645  11.552754  10.456816  10.771980   8.186543
    41  O   10.588733  12.193658  11.150874  11.277226   8.815016
    42  O   10.784904  12.150884  10.938754  11.530416   8.722428
                   11         12         13         14         15
    11  C    0.000000
    12  C    1.515258   0.000000
    13  N    2.320787   1.307455   0.000000
    14  C    1.533364   2.505906   3.438592   0.000000
    15  H    2.170057   2.727037   3.414840   1.088154   0.000000
    16  H    2.164369   2.782024   3.948314   1.090564   1.772190
    17  H    2.151705   3.443342   4.270555   1.090263   1.780743
    18  C    1.538548   2.504467   3.355116   2.525823   3.476365
    19  H    2.185205   2.723133   3.274929   3.482300   4.323288
    20  H    2.150990   3.437698   4.185818   2.772931   3.768379
    21  H    2.177416   2.815932   3.911270   2.739404   3.742350
    22  C    2.590997   1.431476   2.444839   3.137963   3.390580
    23  C    4.542364   3.225840   3.457771   4.694936   4.329558
    24  C    4.343828   3.260756   3.256051   4.327278   3.670372
    25  O    3.407337   2.650502   2.705987   3.296664   2.545059
    26  C    5.686177   4.645997   4.425625   5.594890   4.794434
    27  C    6.792154   5.606519   5.394627   6.753203   6.021638
    28  C    6.885642   5.562673   5.503163   6.946906   6.393085
    29  C    5.907492   4.545327   4.683424   6.051783   5.672848
    30  C    3.738602   2.471164   1.449720   4.774959   4.624028
    31  H    4.066474   2.619453   2.076458   5.064001   5.013612
    32  H    4.282828   3.060241   2.086311   5.063790   4.676318
    33  H    4.297585   3.230682   2.068547   5.505528   5.424203
    34  C    3.805167   2.517745   3.166275   4.098293   4.073579
    35  H    2.801688   2.114158   3.257335   3.303869   3.837425
    36  H    4.609497   3.424131   4.154872   4.835934   4.917795
    37  H    6.362901   4.982026   5.232770   6.573619   6.341230
    38  H    7.767039   6.619205   6.323281   7.689799   6.891370
    39  H    5.937025   5.092536   4.765570   5.754935   4.830911
    40  N    8.242822   6.879848   6.810978   8.321571   7.796157
    41  O    8.590170   7.189885   7.227621   8.732455   8.336926
    42  O    9.147826   7.819652   7.646859   9.176008   8.550699
                   16         17         18         19         20
    16  H    0.000000
    17  H    1.771776   0.000000
    18  C    2.750298   2.756117   0.000000
    19  H    3.743725   3.768035   1.090044   0.000000
    20  H    3.118490   2.555735   1.089918   1.770626   0.000000
    21  H    2.512914   3.061225   1.089770   1.777143   1.765911
    22  C    2.886819   4.156630   3.145526   3.389235   4.170543
    23  C    4.516994   5.779709   5.542791   5.785723   6.496182
    24  C    4.416654   5.341401   5.639798   5.983482   6.457479
    25  O    3.603683   4.244046   4.838617   5.285805   5.533466
    26  C    5.731250   6.544618   7.041328   7.362847   7.822917
    27  C    6.759688   7.747020   8.046456   8.300831   8.903566
    28  C    6.778936   8.004281   7.948414   8.137831   8.895833
    29  C    5.785014   7.135318   6.820140   6.994518   7.807256
    30  C    5.160931   5.672253   4.643383   4.389913   5.543492
    31  H    5.230059   6.035197   4.770647   4.488889   5.777909
    32  H    5.479897   5.980047   5.408583   5.297601   6.260080
    33  H    5.982416   6.301022   5.033487   4.577551   5.865908
    34  C    3.749117   5.172522   4.494365   4.720146   5.502747
    35  H    2.821443   4.186703   2.821900   3.091493   3.831895
    36  H    4.287257   5.870322   5.048097   5.251197   6.061728
    37  H    6.179723   7.656743   7.071197   7.182972   8.098892
    38  H    7.735897   8.647753   9.064901   9.317315   9.896498
    39  H    6.040105   6.597180   7.391159   7.755319   8.068337
    40  N    8.084804   9.385124   9.227160   9.366927  10.205657
    41  O    8.383709   9.811553   9.407005   9.494738  10.426614
    42  O    9.006023  10.214646  10.225787  10.379806  11.175333
                   21         22         23         24         25
    21  H    0.000000
    22  C    2.937687   0.000000
    23  C    5.430133   2.550444   0.000000
    24  C    5.737943   3.172254   1.459302   0.000000
    25  O    5.074628   3.012423   2.381506   1.247916   0.000000
    26  C    7.178577   4.594332   2.464798   1.448118   2.349006
    27  C    8.084692   5.301738   2.825789   2.463277   3.588199
    28  C    7.839647   4.937978   2.417290   2.835623   4.082674
    29  C    6.624285   3.717773   1.393024   2.466391   3.617747
    30  C    5.082119   3.033787   3.190464   3.172794   3.137158
    31  H    4.995030   2.646606   2.766814   3.245496   3.491342
    32  H    5.838899   3.568691   2.958523   2.597160   2.718605
    33  H    5.593791   3.921722   4.241440   4.205676   4.116074
    34  C    4.219253   1.354271   1.440972   2.550139   2.930934
    35  H    2.282528   1.084513   3.462243   4.192797   3.991046
    36  H    4.566374   2.056717   2.126607   3.441507   3.944057
    37  H    6.749054   3.929970   2.145920   3.449995   4.513405
    38  H    9.135903   6.374770   3.906118   3.447828   4.474999
    39  H    7.638832   5.286023   3.435872   2.160662   2.577035
    40  N    9.053791   6.142367   3.718455   4.267100   5.513922
    41  O    9.126176   6.268114   4.101687   4.976720   6.205487
    42  O   10.111685   7.200676   4.699440   4.968514   6.186270
                   26         27         28         29         30
    26  C    0.000000
    27  C    1.358050   0.000000
    28  C    2.392234   1.411362   0.000000
    29  C    2.785071   2.426388   1.380024   0.000000
    30  C    4.066602   4.771186   4.787806   4.105204   0.000000
    31  H    4.205287   4.680106   4.378381   3.507396   1.085048
    32  H    3.193915   3.922044   4.174577   3.775141   1.090306
    33  H    4.965487   5.615681   5.652940   5.045242   1.087638
    34  C    3.819361   4.264038   3.702172   2.416234   3.235925
    35  H    5.612373   6.267008   5.786652   4.487781   3.939198
    36  H    4.563454   4.762466   3.922017   2.552994   4.143047
    37  H    3.866754   3.399928   2.126856   1.082241   4.632863
    38  H    2.129500   1.080863   2.156971   3.395617   5.640087
    39  H    1.082441   2.125897   3.384115   3.867253   4.530881
    40  N    3.696207   2.458381   1.431529   2.429534   5.966967
    41  O    4.680709   3.562367   2.290068   2.709013   6.373222
    42  O    4.075186   2.718834   2.283755   3.527505   6.760693
                   31         32         33         34         35
    31  H    0.000000
    32  H    1.779980   0.000000
    33  H    1.779486   1.782413   0.000000
    34  C    2.623494   3.475098   4.235669   0.000000
    35  H    3.475445   4.591711   4.704712   2.084671   0.000000
    36  H    3.354588   4.429596   5.071589   1.086525   2.301400
    37  H    3.830223   4.499449   5.505982   2.605837   4.496501
    38  H    5.614153   4.708570   6.397669   5.343534   7.346447
    39  H    4.888621   3.574604   5.335900   4.695687   6.314307
    40  N    5.451084   5.385529   6.736591   4.842449   6.900778
    41  O    5.676656   5.972338   7.116077   4.938558   6.882126
    42  O    6.369464   6.044488   7.473406   5.935052   8.013756
                   36         37         38         39         40
    36  H    0.000000
    37  H    2.298320   0.000000
    38  H    5.812126   4.275985   0.000000
    39  H    5.517850   4.948994   2.472037   0.000000
    40  N    4.823207   2.627733   2.666460   4.581022   0.000000
    41  O    4.664083   2.386717   3.882891   5.646067   1.222958
    42  O    5.997148   3.843241   2.411972   4.752595   1.222790
                   41         42
    41  O    0.000000
    42  O    2.143764   0.000000
 Stoichiometry    C19H18N2O3
 Framework group  C1[X(C19H18N2O3)]
 Deg. of freedom   120
 Full point group                 C1      NOp   1
 RotChk:  IX=0 Diff= 6.77D-15
 Largest Abelian subgroup         C1      NOp   1
 Largest concise Abelian subgroup C1      NOp   1
                         Standard orientation:                         
 ---------------------------------------------------------------------
 Center     Atomic      Atomic             Coordinates (Angstroms)
 Number     Number       Type             X           Y           Z
 ---------------------------------------------------------------------
      1          6           0        5.028201   -1.691580    0.271422
      2          6           0        4.196673   -2.544119   -0.447513
      3          6           0        2.947498   -2.122984   -0.895261
      4          6           0        2.586749   -0.827329   -0.584876
      5          6           0        3.395367    0.037548    0.135969
      6          6           0        4.634778   -0.387890    0.569546
      7          1           0        5.993048   -2.047851    0.606551
      8          1           0        4.522001   -3.553078   -0.662040
      9          1           0        5.286542    0.269749    1.131252
     10          1           0        2.297288   -2.787388   -1.447240
     11          6           0        2.683287    1.355255    0.283072
     12          6           0        1.367081    1.054326   -0.404713
     13          7           0        1.387523   -0.146168   -0.922239
     14          6           0        2.449322    1.741807    1.748351
     15          1           0        1.900720    0.958741    2.267892
     16          1           0        1.877226    2.668665    1.802846
     17          1           0        3.413376    1.897734    2.233078
     18          6           0        3.426901    2.477807   -0.461270
     19          1           0        3.553000    2.237552   -1.517003
     20          1           0        4.412322    2.600300   -0.011980
     21          1           0        2.890782    3.422148   -0.369642
     22          6           0        0.316174    2.017316   -0.536509
     23          6           0       -1.810883    0.737966    0.049710
     24          6           0       -1.282023   -0.293570    0.936165
     25          8           0       -0.098998   -0.307975    1.333075
     26          6           0       -2.223087   -1.310730    1.356677
     27          6           0       -3.526746   -1.307153    0.976202
     28          6           0       -4.007831   -0.264821    0.155202
     29          6           0       -3.165518    0.740090   -0.275065
     30          6           0        0.361797   -0.769070   -1.735609
     31          1           0       -0.288363    0.000018   -2.139496
     32          1           0       -0.219123   -1.461447   -1.125763
     33          1           0        0.847169   -1.308426   -2.545834
     34          6           0       -1.022747    1.846343   -0.426463
     35          1           0        0.670954    3.025101   -0.722704
     36          1           0       -1.610102    2.721490   -0.690410
     37          1           0       -3.567939    1.534382   -0.890209
     38          1           0       -4.207033   -2.082385    1.299449
     39          1           0       -1.836172   -2.091053    1.999384
     40          7           0       -5.387202   -0.241971   -0.227011
     41          8           0       -5.793507    0.673136   -0.929238
     42          8           0       -6.115983   -1.142982    0.163212
 ---------------------------------------------------------------------
 Rotational constants (GHZ):           0.5996130           0.1259216           0.1157815
 Leave Link  202 at Sat Mar  9 02:12:30 2024, MaxMem=  2684354560 cpu:               0.5 elap:               0.0
 (Enter /s/ls4/groups/g0130/bin/g16/l301.exe)
 Standard basis: def2TZVP (5D, 7F)
 Ernie: Thresh=  0.10000D-02 Tol=  0.10000D-05 Strict=F.
 AO basis set in the form of general basis input (Overlap normalization):
      1 0
 S   6 1.00       0.000000000000
      0.1357534968D+05  0.6064550360D-03
      0.2035233368D+04  0.4697908888D-02
      0.4632256236D+03  0.2433247765D-01
      0.1312001960D+03  0.9739996831D-01
      0.4285301589D+02  0.3019558425D+00
      0.1558418577D+02  0.6623360914D+00
 S   2 1.00       0.000000000000
      0.6206713851D+01  0.6559530854D+00
      0.2576489653D+01  0.3758563329D+00
 S   1 1.00       0.000000000000
      0.5769633942D+00  0.1000000000D+01
 S   1 1.00       0.000000000000
      0.2297283136D+00  0.1000000000D+01
 S   1 1.00       0.000000000000
      0.9516444003D-01  0.1000000000D+01
 P   4 1.00       0.000000000000
      0.3469723224D+02  0.1132722000D-01
      0.7958262283D+01  0.7616965920D-01
      0.2378082688D+01  0.3019225220D+00
      0.8143320818D+00  0.7278502735D+00
 P   1 1.00       0.000000000000
      0.2888754725D+00  0.1000000000D+01
 P   1 1.00       0.000000000000
      0.1005682367D+00  0.1000000000D+01
 D   1 1.00       0.000000000000
      0.1097000000D+01  0.1000000000D+01
 D   1 1.00       0.000000000000
      0.3180000000D+00  0.1000000000D+01
 F   1 1.00       0.000000000000
      0.7610000000D+00  0.1000000000D+01
 ****
      2 0
 S   6 1.00       0.000000000000
      0.1357534968D+05  0.6064550360D-03
      0.2035233368D+04  0.4697908888D-02
      0.4632256236D+03  0.2433247765D-01
      0.1312001960D+03  0.9739996831D-01
      0.4285301589D+02  0.3019558425D+00
      0.1558418577D+02  0.6623360914D+00
 S   2 1.00       0.000000000000
      0.6206713851D+01  0.6559530854D+00
      0.2576489653D+01  0.3758563329D+00
 S   1 1.00       0.000000000000
      0.5769633942D+00  0.1000000000D+01
 S   1 1.00       0.000000000000
      0.2297283136D+00  0.1000000000D+01
 S   1 1.00       0.000000000000
      0.9516444003D-01  0.1000000000D+01
 P   4 1.00       0.000000000000
      0.3469723224D+02  0.1132722000D-01
      0.7958262283D+01  0.7616965920D-01
      0.2378082688D+01  0.3019225220D+00
      0.8143320818D+00  0.7278502735D+00
 P   1 1.00       0.000000000000
      0.2888754725D+00  0.1000000000D+01
 P   1 1.00       0.000000000000
      0.1005682367D+00  0.1000000000D+01
 D   1 1.00       0.000000000000
      0.1097000000D+01  0.1000000000D+01
 D   1 1.00       0.000000000000
      0.3180000000D+00  0.1000000000D+01
 F   1 1.00       0.000000000000
      0.7610000000D+00  0.1000000000D+01
 ****
      3 0
 S   6 1.00       0.000000000000
      0.1357534968D+05  0.6064550360D-03
      0.2035233368D+04  0.4697908888D-02
      0.4632256236D+03  0.2433247765D-01
      0.1312001960D+03  0.9739996831D-01
      0.4285301589D+02  0.3019558425D+00
      0.1558418577D+02  0.6623360914D+00
 S   2 1.00       0.000000000000
      0.6206713851D+01  0.6559530854D+00
      0.2576489653D+01  0.3758563329D+00
 S   1 1.00       0.000000000000
      0.5769633942D+00  0.1000000000D+01
 S   1 1.00       0.000000000000
      0.2297283136D+00  0.1000000000D+01
 S   1 1.00       0.000000000000
      0.9516444003D-01  0.1000000000D+01
 P   4 1.00       0.000000000000
      0.3469723224D+02  0.1132722000D-01
      0.7958262283D+01  0.7616965920D-01
      0.2378082688D+01  0.3019225220D+00
      0.8143320818D+00  0.7278502735D+00
 P   1 1.00       0.000000000000
      0.2888754725D+00  0.1000000000D+01
 P   1 1.00       0.000000000000
      0.1005682367D+00  0.1000000000D+01
 D   1 1.00       0.000000000000
      0.1097000000D+01  0.1000000000D+01
 D   1 1.00       0.000000000000
      0.3180000000D+00  0.1000000000D+01
 F   1 1.00       0.000000000000
      0.7610000000D+00  0.1000000000D+01
 ****
      4 0
 S   6 1.00       0.000000000000
      0.1357534968D+05  0.6064550360D-03
      0.2035233368D+04  0.4697908888D-02
      0.4632256236D+03  0.2433247765D-01
      0.1312001960D+03  0.9739996831D-01
      0.4285301589D+02  0.3019558425D+00
      0.1558418577D+02  0.6623360914D+00
 S   2 1.00       0.000000000000
      0.6206713851D+01  0.6559530854D+00
      0.2576489653D+01  0.3758563329D+00
 S   1 1.00       0.000000000000
      0.5769633942D+00  0.1000000000D+01
 S   1 1.00       0.000000000000
      0.2297283136D+00  0.1000000000D+01
 S   1 1.00       0.000000000000
      0.9516444003D-01  0.1000000000D+01
 P   4 1.00       0.000000000000
      0.3469723224D+02  0.1132722000D-01
      0.7958262283D+01  0.7616965920D-01
      0.2378082688D+01  0.3019225220D+00
      0.8143320818D+00  0.7278502735D+00
 P   1 1.00       0.000000000000
      0.2888754725D+00  0.1000000000D+01
 P   1 1.00       0.000000000000
      0.1005682367D+00  0.1000000000D+01
 D   1 1.00       0.000000000000
      0.1097000000D+01  0.1000000000D+01
 D   1 1.00       0.000000000000
      0.3180000000D+00  0.1000000000D+01
 F   1 1.00       0.000000000000
      0.7610000000D+00  0.1000000000D+01
 ****
      5 0
 S   6 1.00       0.000000000000
      0.1357534968D+05  0.6064550360D-03
      0.2035233368D+04  0.4697908888D-02
      0.4632256236D+03  0.2433247765D-01
      0.1312001960D+03  0.9739996831D-01
      0.4285301589D+02  0.3019558425D+00
      0.1558418577D+02  0.6623360914D+00
 S   2 1.00       0.000000000000
      0.6206713851D+01  0.6559530854D+00
      0.2576489653D+01  0.3758563329D+00
 S   1 1.00       0.000000000000
      0.5769633942D+00  0.1000000000D+01
 S   1 1.00       0.000000000000
      0.2297283136D+00  0.1000000000D+01
 S   1 1.00       0.000000000000
      0.9516444003D-01  0.1000000000D+01
 P   4 1.00       0.000000000000
      0.3469723224D+02  0.1132722000D-01
      0.7958262283D+01  0.7616965920D-01
      0.2378082688D+01  0.3019225220D+00
      0.8143320818D+00  0.7278502735D+00
 P   1 1.00       0.000000000000
      0.2888754725D+00  0.1000000000D+01
 P   1 1.00       0.000000000000
      0.1005682367D+00  0.1000000000D+01
 D   1 1.00       0.000000000000
      0.1097000000D+01  0.1000000000D+01
 D   1 1.00       0.000000000000
      0.3180000000D+00  0.1000000000D+01
 F   1 1.00       0.000000000000
      0.7610000000D+00  0.1000000000D+01
 ****
      6 0
 S   6 1.00       0.000000000000
      0.1357534968D+05  0.6064550360D-03
      0.2035233368D+04  0.4697908888D-02
      0.4632256236D+03  0.2433247765D-01
      0.1312001960D+03  0.9739996831D-01
      0.4285301589D+02  0.3019558425D+00
      0.1558418577D+02  0.6623360914D+00
 S   2 1.00       0.000000000000
      0.6206713851D+01  0.6559530854D+00
      0.2576489653D+01  0.3758563329D+00
 S   1 1.00       0.000000000000
      0.5769633942D+00  0.1000000000D+01
 S   1 1.00       0.000000000000
      0.2297283136D+00  0.1000000000D+01
 S   1 1.00       0.000000000000
      0.9516444003D-01  0.1000000000D+01
 P   4 1.00       0.000000000000
      0.3469723224D+02  0.1132722000D-01
      0.7958262283D+01  0.7616965920D-01
      0.2378082688D+01  0.3019225220D+00
      0.8143320818D+00  0.7278502735D+00
 P   1 1.00       0.000000000000
      0.2888754725D+00  0.1000000000D+01
 P   1 1.00       0.000000000000
      0.1005682367D+00  0.1000000000D+01
 D   1 1.00       0.000000000000
      0.1097000000D+01  0.1000000000D+01
 D   1 1.00       0.000000000000
      0.3180000000D+00  0.1000000000D+01
 F   1 1.00       0.000000000000
      0.7610000000D+00  0.1000000000D+01
 ****
      7 0
 S   3 1.00       0.000000000000
      0.3406134100D+02  0.2543930721D-01
      0.5123574600D+01  0.1900859489D+00
      0.1164662600D+01  0.8524411301D+00
 S   1 1.00       0.000000000000
      0.3272304100D+00  0.1000000000D+01
 S   1 1.00       0.000000000000
      0.1030724100D+00  0.1000000000D+01
 P   1 1.00       0.000000000000
      0.8000000000D+00  0.1000000000D+01
 ****
      8 0
 S   3 1.00       0.000000000000
      0.3406134100D+02  0.2543930721D-01
      0.5123574600D+01  0.1900859489D+00
      0.1164662600D+01  0.8524411301D+00
 S   1 1.00       0.000000000000
      0.3272304100D+00  0.1000000000D+01
 S   1 1.00       0.000000000000
      0.1030724100D+00  0.1000000000D+01
 P   1 1.00       0.000000000000
      0.8000000000D+00  0.1000000000D+01
 ****
      9 0
 S   3 1.00       0.000000000000
      0.3406134100D+02  0.2543930721D-01
      0.5123574600D+01  0.1900859489D+00
      0.1164662600D+01  0.8524411301D+00
 S   1 1.00       0.000000000000
      0.3272304100D+00  0.1000000000D+01
 S   1 1.00       0.000000000000
      0.1030724100D+00  0.1000000000D+01
 P   1 1.00       0.000000000000
      0.8000000000D+00  0.1000000000D+01
 ****
     10 0
 S   3 1.00       0.000000000000
      0.3406134100D+02  0.2543930721D-01
      0.5123574600D+01  0.1900859489D+00
      0.1164662600D+01  0.8524411301D+00
 S   1 1.00       0.000000000000
      0.3272304100D+00  0.1000000000D+01
 S   1 1.00       0.000000000000
      0.1030724100D+00  0.1000000000D+01
 P   1 1.00       0.000000000000
      0.8000000000D+00  0.1000000000D+01
 ****
     11 0
 S   6 1.00       0.000000000000
      0.1357534968D+05  0.6064550360D-03
      0.2035233368D+04  0.4697908888D-02
      0.4632256236D+03  0.2433247765D-01
      0.1312001960D+03  0.9739996831D-01
      0.4285301589D+02  0.3019558425D+00
      0.1558418577D+02  0.6623360914D+00
 S   2 1.00       0.000000000000
      0.6206713851D+01  0.6559530854D+00
      0.2576489653D+01  0.3758563329D+00
 S   1 1.00       0.000000000000
      0.5769633942D+00  0.1000000000D+01
 S   1 1.00       0.000000000000
      0.2297283136D+00  0.1000000000D+01
 S   1 1.00       0.000000000000
      0.9516444003D-01  0.1000000000D+01
 P   4 1.00       0.000000000000
      0.3469723224D+02  0.1132722000D-01
      0.7958262283D+01  0.7616965920D-01
      0.2378082688D+01  0.3019225220D+00
      0.8143320818D+00  0.7278502735D+00
 P   1 1.00       0.000000000000
      0.2888754725D+00  0.1000000000D+01
 P   1 1.00       0.000000000000
      0.1005682367D+00  0.1000000000D+01
 D   1 1.00       0.000000000000
      0.1097000000D+01  0.1000000000D+01
 D   1 1.00       0.000000000000
      0.3180000000D+00  0.1000000000D+01
 F   1 1.00       0.000000000000
      0.7610000000D+00  0.1000000000D+01
 ****
     12 0
 S   6 1.00       0.000000000000
      0.1357534968D+05  0.6064550360D-03
      0.2035233368D+04  0.4697908888D-02
      0.4632256236D+03  0.2433247765D-01
      0.1312001960D+03  0.9739996831D-01
      0.4285301589D+02  0.3019558425D+00
      0.1558418577D+02  0.6623360914D+00
 S   2 1.00       0.000000000000
      0.6206713851D+01  0.6559530854D+00
      0.2576489653D+01  0.3758563329D+00
 S   1 1.00       0.000000000000
      0.5769633942D+00  0.1000000000D+01
 S   1 1.00       0.000000000000
      0.2297283136D+00  0.1000000000D+01
 S   1 1.00       0.000000000000
      0.9516444003D-01  0.1000000000D+01
 P   4 1.00       0.000000000000
      0.3469723224D+02  0.1132722000D-01
      0.7958262283D+01  0.7616965920D-01
      0.2378082688D+01  0.3019225220D+00
      0.8143320818D+00  0.7278502735D+00
 P   1 1.00       0.000000000000
      0.2888754725D+00  0.1000000000D+01
 P   1 1.00       0.000000000000
      0.1005682367D+00  0.1000000000D+01
 D   1 1.00       0.000000000000
      0.1097000000D+01  0.1000000000D+01
 D   1 1.00       0.000000000000
      0.3180000000D+00  0.1000000000D+01
 F   1 1.00       0.000000000000
      0.7610000000D+00  0.1000000000D+01
 ****
     13 0
 S   6 1.00       0.000000000000
      0.1973080065D+05  0.5862640263D-03
      0.2957895874D+04  0.4542882059D-02
      0.6732213360D+03  0.2355841345D-01
      0.1906824949D+03  0.9470919329D-01
      0.6229544190D+02  0.2971978491D+00
      0.2265416118D+02  0.6691624690D+00
 S   2 1.00       0.000000000000
      0.8979147743D+01  0.6459668363D+00
      0.3686300237D+01  0.3870057439D+00
 S   1 1.00       0.000000000000
      0.8466007680D+00  0.1000000000D+01
 S   1 1.00       0.000000000000
      0.3364713377D+00  0.1000000000D+01
 S   1 1.00       0.000000000000
      0.1364765367D+00  0.1000000000D+01
 P   4 1.00       0.000000000000
      0.4920038051D+02  0.1144882510D-01
      0.1134679054D+02  0.7842233797D-01
      0.3427397241D+01  0.3081809474D+00
      0.1178552513D+01  0.7202719637D+00
 P   1 1.00       0.000000000000
      0.4164220497D+00  0.1000000000D+01
 P   1 1.00       0.000000000000
      0.1426082601D+00  0.1000000000D+01
 D   1 1.00       0.000000000000
      0.1654000000D+01  0.1000000000D+01
 D   1 1.00       0.000000000000
      0.4690000000D+00  0.1000000000D+01
 F   1 1.00       0.000000000000
      0.1093000000D+01  0.1000000000D+01
 ****
     14 0
 S   6 1.00       0.000000000000
      0.1357534968D+05  0.6064550360D-03
      0.2035233368D+04  0.4697908888D-02
      0.4632256236D+03  0.2433247765D-01
      0.1312001960D+03  0.9739996831D-01
      0.4285301589D+02  0.3019558425D+00
      0.1558418577D+02  0.6623360914D+00
 S   2 1.00       0.000000000000
      0.6206713851D+01  0.6559530854D+00
      0.2576489653D+01  0.3758563329D+00
 S   1 1.00       0.000000000000
      0.5769633942D+00  0.1000000000D+01
 S   1 1.00       0.000000000000
      0.2297283136D+00  0.1000000000D+01
 S   1 1.00       0.000000000000
      0.9516444003D-01  0.1000000000D+01
 P   4 1.00       0.000000000000
      0.3469723224D+02  0.1132722000D-01
      0.7958262283D+01  0.7616965920D-01
      0.2378082688D+01  0.3019225220D+00
      0.8143320818D+00  0.7278502735D+00
 P   1 1.00       0.000000000000
      0.2888754725D+00  0.1000000000D+01
 P   1 1.00       0.000000000000
      0.1005682367D+00  0.1000000000D+01
 D   1 1.00       0.000000000000
      0.1097000000D+01  0.1000000000D+01
 D   1 1.00       0.000000000000
      0.3180000000D+00  0.1000000000D+01
 F   1 1.00       0.000000000000
      0.7610000000D+00  0.1000000000D+01
 ****
     15 0
 S   3 1.00       0.000000000000
      0.3406134100D+02  0.2543930721D-01
      0.5123574600D+01  0.1900859489D+00
      0.1164662600D+01  0.8524411301D+00
 S   1 1.00       0.000000000000
      0.3272304100D+00  0.1000000000D+01
 S   1 1.00       0.000000000000
      0.1030724100D+00  0.1000000000D+01
 P   1 1.00       0.000000000000
      0.8000000000D+00  0.1000000000D+01
 ****
     16 0
 S   3 1.00       0.000000000000
      0.3406134100D+02  0.2543930721D-01
      0.5123574600D+01  0.1900859489D+00
      0.1164662600D+01  0.8524411301D+00
 S   1 1.00       0.000000000000
      0.3272304100D+00  0.1000000000D+01
 S   1 1.00       0.000000000000
      0.1030724100D+00  0.1000000000D+01
 P   1 1.00       0.000000000000
      0.8000000000D+00  0.1000000000D+01
 ****
     17 0
 S   3 1.00       0.000000000000
      0.3406134100D+02  0.2543930721D-01
      0.5123574600D+01  0.1900859489D+00
      0.1164662600D+01  0.8524411301D+00
 S   1 1.00       0.000000000000
      0.3272304100D+00  0.1000000000D+01
 S   1 1.00       0.000000000000
      0.1030724100D+00  0.1000000000D+01
 P   1 1.00       0.000000000000
      0.8000000000D+00  0.1000000000D+01
 ****
     18 0
 S   6 1.00       0.000000000000
      0.1357534968D+05  0.6064550360D-03
      0.2035233368D+04  0.4697908888D-02
      0.4632256236D+03  0.2433247765D-01
      0.1312001960D+03  0.9739996831D-01
      0.4285301589D+02  0.3019558425D+00
      0.1558418577D+02  0.6623360914D+00
 S   2 1.00       0.000000000000
      0.6206713851D+01  0.6559530854D+00
      0.2576489653D+01  0.3758563329D+00
 S   1 1.00       0.000000000000
      0.5769633942D+00  0.1000000000D+01
 S   1 1.00       0.000000000000
      0.2297283136D+00  0.1000000000D+01
 S   1 1.00       0.000000000000
      0.9516444003D-01  0.1000000000D+01
 P   4 1.00       0.000000000000
      0.3469723224D+02  0.1132722000D-01
      0.7958262283D+01  0.7616965920D-01
      0.2378082688D+01  0.3019225220D+00
      0.8143320818D+00  0.7278502735D+00
 P   1 1.00       0.000000000000
      0.2888754725D+00  0.1000000000D+01
 P   1 1.00       0.000000000000
      0.1005682367D+00  0.1000000000D+01
 D   1 1.00       0.000000000000
      0.1097000000D+01  0.1000000000D+01
 D   1 1.00       0.000000000000
      0.3180000000D+00  0.1000000000D+01
 F   1 1.00       0.000000000000
      0.7610000000D+00  0.1000000000D+01
 ****
     19 0
 S   3 1.00       0.000000000000
      0.3406134100D+02  0.2543930721D-01
      0.5123574600D+01  0.1900859489D+00
      0.1164662600D+01  0.8524411301D+00
 S   1 1.00       0.000000000000
      0.3272304100D+00  0.1000000000D+01
 S   1 1.00       0.000000000000
      0.1030724100D+00  0.1000000000D+01
 P   1 1.00       0.000000000000
      0.8000000000D+00  0.1000000000D+01
 ****
     20 0
 S   3 1.00       0.000000000000
      0.3406134100D+02  0.2543930721D-01
      0.5123574600D+01  0.1900859489D+00
      0.1164662600D+01  0.8524411301D+00
 S   1 1.00       0.000000000000
      0.3272304100D+00  0.1000000000D+01
 S   1 1.00       0.000000000000
      0.1030724100D+00  0.1000000000D+01
 P   1 1.00       0.000000000000
      0.8000000000D+00  0.1000000000D+01
 ****
     21 0
 S   3 1.00       0.000000000000
      0.3406134100D+02  0.2543930721D-01
      0.5123574600D+01  0.1900859489D+00
      0.1164662600D+01  0.8524411301D+00
 S   1 1.00       0.000000000000
      0.3272304100D+00  0.1000000000D+01
 S   1 1.00       0.000000000000
      0.1030724100D+00  0.1000000000D+01
 P   1 1.00       0.000000000000
      0.8000000000D+00  0.1000000000D+01
 ****
     22 0
 S   6 1.00       0.000000000000
      0.1357534968D+05  0.6064550360D-03
      0.2035233368D+04  0.4697908888D-02
      0.4632256236D+03  0.2433247765D-01
      0.1312001960D+03  0.9739996831D-01
      0.4285301589D+02  0.3019558425D+00
      0.1558418577D+02  0.6623360914D+00
 S   2 1.00       0.000000000000
      0.6206713851D+01  0.6559530854D+00
      0.2576489653D+01  0.3758563329D+00
 S   1 1.00       0.000000000000
      0.5769633942D+00  0.1000000000D+01
 S   1 1.00       0.000000000000
      0.2297283136D+00  0.1000000000D+01
 S   1 1.00       0.000000000000
      0.9516444003D-01  0.1000000000D+01
 P   4 1.00       0.000000000000
      0.3469723224D+02  0.1132722000D-01
      0.7958262283D+01  0.7616965920D-01
      0.2378082688D+01  0.3019225220D+00
      0.8143320818D+00  0.7278502735D+00
 P   1 1.00       0.000000000000
      0.2888754725D+00  0.1000000000D+01
 P   1 1.00       0.000000000000
      0.1005682367D+00  0.1000000000D+01
 D   1 1.00       0.000000000000
      0.1097000000D+01  0.1000000000D+01
 D   1 1.00       0.000000000000
      0.3180000000D+00  0.1000000000D+01
 F   1 1.00       0.000000000000
      0.7610000000D+00  0.1000000000D+01
 ****
     23 0
 S   6 1.00       0.000000000000
      0.1357534968D+05  0.6064550360D-03
      0.2035233368D+04  0.4697908888D-02
      0.4632256236D+03  0.2433247765D-01
      0.1312001960D+03  0.9739996831D-01
      0.4285301589D+02  0.3019558425D+00
      0.1558418577D+02  0.6623360914D+00
 S   2 1.00       0.000000000000
      0.6206713851D+01  0.6559530854D+00
      0.2576489653D+01  0.3758563329D+00
 S   1 1.00       0.000000000000
      0.5769633942D+00  0.1000000000D+01
 S   1 1.00       0.000000000000
      0.2297283136D+00  0.1000000000D+01
 S   1 1.00       0.000000000000
      0.9516444003D-01  0.1000000000D+01
 P   4 1.00       0.000000000000
      0.3469723224D+02  0.1132722000D-01
      0.7958262283D+01  0.7616965920D-01
      0.2378082688D+01  0.3019225220D+00
      0.8143320818D+00  0.7278502735D+00
 P   1 1.00       0.000000000000
      0.2888754725D+00  0.1000000000D+01
 P   1 1.00       0.000000000000
      0.1005682367D+00  0.1000000000D+01
 D   1 1.00       0.000000000000
      0.1097000000D+01  0.1000000000D+01
 D   1 1.00       0.000000000000
      0.3180000000D+00  0.1000000000D+01
 F   1 1.00       0.000000000000
      0.7610000000D+00  0.1000000000D+01
 ****
     24 0
 S   6 1.00       0.000000000000
      0.1357534968D+05  0.6064550360D-03
      0.2035233368D+04  0.4697908888D-02
      0.4632256236D+03  0.2433247765D-01
      0.1312001960D+03  0.9739996831D-01
      0.4285301589D+02  0.3019558425D+00
      0.1558418577D+02  0.6623360914D+00
 S   2 1.00       0.000000000000
      0.6206713851D+01  0.6559530854D+00
      0.2576489653D+01  0.3758563329D+00
 S   1 1.00       0.000000000000
      0.5769633942D+00  0.1000000000D+01
 S   1 1.00       0.000000000000
      0.2297283136D+00  0.1000000000D+01
 S   1 1.00       0.000000000000
      0.9516444003D-01  0.1000000000D+01
 P   4 1.00       0.000000000000
      0.3469723224D+02  0.1132722000D-01
      0.7958262283D+01  0.7616965920D-01
      0.2378082688D+01  0.3019225220D+00
      0.8143320818D+00  0.7278502735D+00
 P   1 1.00       0.000000000000
      0.2888754725D+00  0.1000000000D+01
 P   1 1.00       0.000000000000
      0.1005682367D+00  0.1000000000D+01
 D   1 1.00       0.000000000000
      0.1097000000D+01  0.1000000000D+01
 D   1 1.00       0.000000000000
      0.3180000000D+00  0.1000000000D+01
 F   1 1.00       0.000000000000
      0.7610000000D+00  0.1000000000D+01
 ****
     25 0
 S   6 1.00       0.000000000000
      0.2703238263D+05  0.5722733521D-03
      0.4052387139D+04  0.4435323349D-02
      0.9223272271D+03  0.2302010771D-01
      0.2612407099D+03  0.9282249067D-01
      0.8535464135D+02  0.2937850001D+00
      0.3103503524D+02  0.6740160450D+00
 S   2 1.00       0.000000000000
      0.1226086073D+02  0.6383993703D+00
      0.4998707601D+01  0.3953458713D+00
 S   1 1.00       0.000000000000
      0.1170310816D+01  0.1000000000D+01
 S   1 1.00       0.000000000000
      0.4647474099D+00  0.1000000000D+01
 S   1 1.00       0.000000000000
      0.1850453636D+00  0.1000000000D+01
 P   4 1.00       0.000000000000
      0.6327495480D+02  0.1201833222D-01
      0.1462704938D+02  0.8300542179D-01
      0.4450122346D+01  0.3199174393D+00
      0.1527579965D+01  0.7071554292D+00
 P   1 1.00       0.000000000000
      0.5293511794D+00  0.1000000000D+01
 P   1 1.00       0.000000000000
      0.1747842127D+00  0.1000000000D+01
 D   1 1.00       0.000000000000
      0.2314000000D+01  0.1000000000D+01
 D   1 1.00       0.000000000000
      0.6450000000D+00  0.1000000000D+01
 F   1 1.00       0.000000000000
      0.1428000000D+01  0.1000000000D+01
 ****
     26 0
 S   6 1.00       0.000000000000
      0.1357534968D+05  0.6064550360D-03
      0.2035233368D+04  0.4697908888D-02
      0.4632256236D+03  0.2433247765D-01
      0.1312001960D+03  0.9739996831D-01
      0.4285301589D+02  0.3019558425D+00
      0.1558418577D+02  0.6623360914D+00
 S   2 1.00       0.000000000000
      0.6206713851D+01  0.6559530854D+00
      0.2576489653D+01  0.3758563329D+00
 S   1 1.00       0.000000000000
      0.5769633942D+00  0.1000000000D+01
 S   1 1.00       0.000000000000
      0.2297283136D+00  0.1000000000D+01
 S   1 1.00       0.000000000000
      0.9516444003D-01  0.1000000000D+01
 P   4 1.00       0.000000000000
      0.3469723224D+02  0.1132722000D-01
      0.7958262283D+01  0.7616965920D-01
      0.2378082688D+01  0.3019225220D+00
      0.8143320818D+00  0.7278502735D+00
 P   1 1.00       0.000000000000
      0.2888754725D+00  0.1000000000D+01
 P   1 1.00       0.000000000000
      0.1005682367D+00  0.1000000000D+01
 D   1 1.00       0.000000000000
      0.1097000000D+01  0.1000000000D+01
 D   1 1.00       0.000000000000
      0.3180000000D+00  0.1000000000D+01
 F   1 1.00       0.000000000000
      0.7610000000D+00  0.1000000000D+01
 ****
     27 0
 S   6 1.00       0.000000000000
      0.1357534968D+05  0.6064550360D-03
      0.2035233368D+04  0.4697908888D-02
      0.4632256236D+03  0.2433247765D-01
      0.1312001960D+03  0.9739996831D-01
      0.4285301589D+02  0.3019558425D+00
      0.1558418577D+02  0.6623360914D+00
 S   2 1.00       0.000000000000
      0.6206713851D+01  0.6559530854D+00
      0.2576489653D+01  0.3758563329D+00
 S   1 1.00       0.000000000000
      0.5769633942D+00  0.1000000000D+01
 S   1 1.00       0.000000000000
      0.2297283136D+00  0.1000000000D+01
 S   1 1.00       0.000000000000
      0.9516444003D-01  0.1000000000D+01
 P   4 1.00       0.000000000000
      0.3469723224D+02  0.1132722000D-01
      0.7958262283D+01  0.7616965920D-01
      0.2378082688D+01  0.3019225220D+00
      0.8143320818D+00  0.7278502735D+00
 P   1 1.00       0.000000000000
      0.2888754725D+00  0.1000000000D+01
 P   1 1.00       0.000000000000
      0.1005682367D+00  0.1000000000D+01
 D   1 1.00       0.000000000000
      0.1097000000D+01  0.1000000000D+01
 D   1 1.00       0.000000000000
      0.3180000000D+00  0.1000000000D+01
 F   1 1.00       0.000000000000
      0.7610000000D+00  0.1000000000D+01
 ****
     28 0
 S   6 1.00       0.000000000000
      0.1357534968D+05  0.6064550360D-03
      0.2035233368D+04  0.4697908888D-02
      0.4632256236D+03  0.2433247765D-01
      0.1312001960D+03  0.9739996831D-01
      0.4285301589D+02  0.3019558425D+00
      0.1558418577D+02  0.6623360914D+00
 S   2 1.00       0.000000000000
      0.6206713851D+01  0.6559530854D+00
      0.2576489653D+01  0.3758563329D+00
 S   1 1.00       0.000000000000
      0.5769633942D+00  0.1000000000D+01
 S   1 1.00       0.000000000000
      0.2297283136D+00  0.1000000000D+01
 S   1 1.00       0.000000000000
      0.9516444003D-01  0.1000000000D+01
 P   4 1.00       0.000000000000
      0.3469723224D+02  0.1132722000D-01
      0.7958262283D+01  0.7616965920D-01
      0.2378082688D+01  0.3019225220D+00
      0.8143320818D+00  0.7278502735D+00
 P   1 1.00       0.000000000000
      0.2888754725D+00  0.1000000000D+01
 P   1 1.00       0.000000000000
      0.1005682367D+00  0.1000000000D+01
 D   1 1.00       0.000000000000
      0.1097000000D+01  0.1000000000D+01
 D   1 1.00       0.000000000000
      0.3180000000D+00  0.1000000000D+01
 F   1 1.00       0.000000000000
      0.7610000000D+00  0.1000000000D+01
 ****
     29 0
 S   6 1.00       0.000000000000
      0.1357534968D+05  0.6064550360D-03
      0.2035233368D+04  0.4697908888D-02
      0.4632256236D+03  0.2433247765D-01
      0.1312001960D+03  0.9739996831D-01
      0.4285301589D+02  0.3019558425D+00
      0.1558418577D+02  0.6623360914D+00
 S   2 1.00       0.000000000000
      0.6206713851D+01  0.6559530854D+00
      0.2576489653D+01  0.3758563329D+00
 S   1 1.00       0.000000000000
      0.5769633942D+00  0.1000000000D+01
 S   1 1.00       0.000000000000
      0.2297283136D+00  0.1000000000D+01
 S   1 1.00       0.000000000000
      0.9516444003D-01  0.1000000000D+01
 P   4 1.00       0.000000000000
      0.3469723224D+02  0.1132722000D-01
      0.7958262283D+01  0.7616965920D-01
      0.2378082688D+01  0.3019225220D+00
      0.8143320818D+00  0.7278502735D+00
 P   1 1.00       0.000000000000
      0.2888754725D+00  0.1000000000D+01
 P   1 1.00       0.000000000000
      0.1005682367D+00  0.1000000000D+01
 D   1 1.00       0.000000000000
      0.1097000000D+01  0.1000000000D+01
 D   1 1.00       0.000000000000
      0.3180000000D+00  0.1000000000D+01
 F   1 1.00       0.000000000000
      0.7610000000D+00  0.1000000000D+01
 ****
     30 0
 S   6 1.00       0.000000000000
      0.1357534968D+05  0.6064550360D-03
      0.2035233368D+04  0.4697908888D-02
      0.4632256236D+03  0.2433247765D-01
      0.1312001960D+03  0.9739996831D-01
      0.4285301589D+02  0.3019558425D+00
      0.1558418577D+02  0.6623360914D+00
 S   2 1.00       0.000000000000
      0.6206713851D+01  0.6559530854D+00
      0.2576489653D+01  0.3758563329D+00
 S   1 1.00       0.000000000000
      0.5769633942D+00  0.1000000000D+01
 S   1 1.00       0.000000000000
      0.2297283136D+00  0.1000000000D+01
 S   1 1.00       0.000000000000
      0.9516444003D-01  0.1000000000D+01
 P   4 1.00       0.000000000000
      0.3469723224D+02  0.1132722000D-01
      0.7958262283D+01  0.7616965920D-01
      0.2378082688D+01  0.3019225220D+00
      0.8143320818D+00  0.7278502735D+00
 P   1 1.00       0.000000000000
      0.2888754725D+00  0.1000000000D+01
 P   1 1.00       0.000000000000
      0.1005682367D+00  0.1000000000D+01
 D   1 1.00       0.000000000000
[...]
     8  H   -0.000003   0.000000   0.000000  -0.000001  -0.000000   0.000008
     9  H   -0.000085   0.000416  -0.000010  -0.000043  -0.000001   0.000001
    10  H    0.000022   0.000002  -0.000002  -0.000021  -0.000026  -0.000212
    11  C    0.007858  -0.028822  -0.039456  -0.075527   0.014667  -0.013403
    12  C   -0.021340   0.015441  -0.006846   0.204150  -0.073315   0.061402
    13  N    0.000087  -0.000470   0.000825  -0.095646  -0.014869  -0.004821
    14  C    0.013093  -0.012084  -0.011572   0.002119  -0.007122   0.003639
    15  H   -0.000294   0.000047  -0.000201  -0.008445   0.002000  -0.001617
    16  H   -0.000201   0.000212   0.002104   0.010240   0.000848  -0.000383
    17  H   -0.000152   0.002037   0.000225  -0.000597  -0.000109   0.000107
    18  C    0.395733   0.417176   0.411598  -0.019749  -0.001732   0.000660
    19  H    0.496230  -0.020981  -0.020279   0.005034   0.000196  -0.000036
    20  H   -0.020981   0.485727  -0.020835  -0.000399  -0.000020  -0.000009
    21  H   -0.020279  -0.020835   0.493110  -0.006454  -0.000099   0.000019
    22  C    0.005034  -0.000399  -0.006454   5.619978   0.115127  -0.083989
    23  C    0.000196  -0.000020  -0.000099   0.115127   6.658120  -0.481511
    24  C   -0.000036  -0.000009   0.000019  -0.083989  -0.481511   5.191460
    25  O   -0.000007   0.000012  -0.000012  -0.041963  -0.227751   0.669940
    26  C    0.000000  -0.000001   0.000002   0.015904   0.025852   0.265042
    27  C   -0.000000   0.000000  -0.000000  -0.003562  -0.121093   0.107931
    28  C   -0.000001   0.000000   0.000000  -0.001316   0.013850  -0.123220
    29  C    0.000005  -0.000001  -0.000003   0.022810   0.211883   0.157264
    30  C   -0.000493   0.000030   0.000017  -0.007295  -0.046750   0.005253
    31  H    0.000007   0.000001  -0.000004  -0.025930  -0.014188   0.000628
    32  H    0.000035  -0.000000   0.000001   0.012823   0.007138  -0.009491
    33  H   -0.000054  -0.000006  -0.000005  -0.002649   0.000278   0.001184
    34  C   -0.000589   0.000120   0.000056   0.185264   0.044218   0.035023
    35  H    0.000256  -0.000080   0.000976   0.420010   0.007644  -0.000133
    36  H   -0.000006  -0.000001   0.000016  -0.045989  -0.046110   0.008562
    37  H    0.000000  -0.000000  -0.000000  -0.000458  -0.024245   0.004575
    38  H    0.000000  -0.000000  -0.000000  -0.000016  -0.005033   0.007625
    39  H    0.000000   0.000000   0.000000   0.000450   0.032726  -0.063503
    40  N    0.000000  -0.000000  -0.000000   0.000046   0.006363  -0.002177
    41  O   -0.000000  -0.000000  -0.000000   0.000013  -0.001809   0.001206
    42  O    0.000000  -0.000000  -0.000000  -0.000000  -0.002187   0.000910
              25         26         27         28         29         30
     1  C   -0.000086   0.000105   0.000015   0.000002  -0.000004  -0.000617
     2  C    0.000189  -0.000811  -0.000050  -0.000006   0.000016  -0.000141
     3  C   -0.002488   0.008707  -0.002753   0.000213  -0.000531  -0.022792
     4  C    0.002549  -0.006473  -0.000184   0.000302  -0.000915  -0.041637
     5  C    0.011369  -0.004703   0.000954   0.000043   0.000257   0.014690
     6  C    0.000617  -0.000471   0.000044  -0.000007   0.000009   0.001590
     7  H    0.000000  -0.000000   0.000000   0.000000   0.000000  -0.000003
     8  H    0.000001  -0.000025   0.000000  -0.000000   0.000000   0.000056
     9  H    0.000011  -0.000003   0.000000  -0.000000   0.000000   0.000027
    10  H   -0.000022   0.001262   0.000266   0.000145  -0.000197   0.000237
    11  C   -0.029347   0.001754  -0.000271   0.000017  -0.001234  -0.002262
    12  C    0.033168  -0.025454   0.007201  -0.003595   0.006110  -0.032614
    13  N   -0.018978  -0.006881   0.002245   0.002122  -0.009000   0.207744
    14  C   -0.005620   0.000876  -0.000080  -0.000002   0.000093   0.000014
    15  H    0.005495  -0.000345   0.000029   0.000008  -0.000075  -0.000108
    16  H   -0.000785  -0.000018   0.000002  -0.000001   0.000013  -0.000020
    17  H    0.000445   0.000012  -0.000001   0.000000  -0.000002   0.000021
    18  C    0.000688  -0.000072   0.000011  -0.000005   0.000054   0.000425
    19  H   -0.000007   0.000000  -0.000000  -0.000001   0.000005  -0.000493
    20  H    0.000012  -0.000001   0.000000   0.000000  -0.000001   0.000030
    21  H   -0.000012   0.000002  -0.000000   0.000000  -0.000003   0.000017
    22  C   -0.041963   0.015904  -0.003562  -0.001316   0.022810  -0.007295
    23  C   -0.227751   0.025852  -0.121093   0.013850   0.211883  -0.046750
    24  C    0.669940   0.265042   0.107931  -0.123220   0.157264   0.005253
    25  O    8.088383  -0.116250   0.014780  -0.002471   0.008886   0.003216
    26  C   -0.116250   5.761248   0.087946   0.103758  -0.236101   0.006595
    27  C    0.014780   0.087946   5.453678   0.179450   0.084422  -0.007412
    28  C   -0.002471   0.103758   0.179450   5.580670   0.180655   0.005501
    29  C    0.008886  -0.236101   0.084422   0.180655   5.537009  -0.001546
    30  C    0.003216   0.006595  -0.007412   0.005501  -0.001546   5.095839
    31  H   -0.000032  -0.000611   0.000627  -0.000683  -0.008531   0.411036
    32  H    0.000173   0.009691  -0.013473  -0.001243   0.004179   0.414914
    33  H   -0.000082  -0.000328   0.000638  -0.000184  -0.000277   0.410843
    34  C    0.062583   0.023564  -0.010390   0.040491  -0.207129   0.002550
    35  H   -0.000157   0.000142  -0.000033   0.000038  -0.000476  -0.000056
    36  H    0.000363  -0.000366   0.000039   0.000225  -0.001065   0.000372
    37  H   -0.000066  -0.003700   0.006779  -0.032891   0.409870  -0.000427
    38  H   -0.000128  -0.023517   0.405480  -0.033477   0.008394   0.000008
    39  H    0.011306   0.414453  -0.040545   0.010362  -0.005252  -0.000470
    40  N    0.000004   0.008343  -0.061350   0.418643  -0.056431   0.000198
    41  O   -0.000000  -0.002129   0.021495  -0.156760   0.022251  -0.000161
    42  O   -0.000000  -0.002986   0.024129  -0.154403   0.021622   0.000009
              31         32         33         34         35         36
     1  C    0.000009   0.000020  -0.000165  -0.000064   0.000004  -0.000000
     2  C    0.000003  -0.000076   0.000186   0.000136  -0.000003   0.000000
     3  C    0.001758  -0.003374  -0.007137  -0.000274   0.000031  -0.000000
     4  C    0.012161  -0.010414  -0.000856   0.008530  -0.000447   0.000082
     5  C   -0.002388   0.000429   0.002680  -0.006824   0.000473  -0.000020
     6  C   -0.000033  -0.000055   0.000177   0.000365  -0.000022   0.000001
     7  H   -0.000000   0.000000   0.000001  -0.000000  -0.000000  -0.000000
     8  H   -0.000001  -0.000006   0.000004   0.000000   0.000000   0.000000
     9  H   -0.000001  -0.000000   0.000001   0.000005  -0.000002   0.000000
    10  H    0.000292  -0.002236  -0.002330   0.000048  -0.000000  -0.000000
    11  C    0.007669  -0.004087   0.001143   0.014487   0.009833   0.000057
    12  C   -0.004063   0.000017  -0.000857   0.042720  -0.050942   0.010746
    13  N   -0.025827  -0.036220  -0.027340   0.027423   0.005445   0.000092
    14  C   -0.000043   0.000070  -0.000003   0.004581  -0.005247  -0.000053
    15  H    0.000005  -0.000004  -0.000000   0.000329   0.000045   0.000008
    16  H    0.000001   0.000000  -0.000001  -0.001398  -0.001091  -0.000011
    17  H    0.000001  -0.000002   0.000000   0.000193   0.000092   0.000001
    18  C    0.000110  -0.000080   0.000266   0.001844  -0.002664   0.000052
    19  H    0.000007   0.000035  -0.000054  -0.000589   0.000256  -0.000006
    20  H    0.000001  -0.000000  -0.000006   0.000120  -0.000080  -0.000001
    21  H   -0.000004   0.000001  -0.000005   0.000056   0.000976   0.000016
    22  C   -0.025930   0.012823  -0.002649   0.185264   0.420010  -0.045989
    23  C   -0.014188   0.007138   0.000278   0.044218   0.007644  -0.046110
    24  C    0.000628  -0.009491   0.001184   0.035023  -0.000133   0.008562
    25  O   -0.000032   0.000173  -0.000082   0.062583  -0.000157   0.000363
    26  C   -0.000611   0.009691  -0.000328   0.023564   0.000142  -0.000366
    27  C    0.000627  -0.013473   0.000638  -0.010390  -0.000033   0.000039
    28  C   -0.000683  -0.001243  -0.000184   0.040491   0.000038   0.000225
    29  C   -0.008531   0.004179  -0.000277  -0.207129  -0.000476  -0.001065
    30  C    0.411036   0.414914   0.410843   0.002550  -0.000056   0.000372
    31  H    0.455831  -0.023182  -0.009068   0.017213  -0.000049   0.000722
    32  H   -0.023182   0.483437  -0.028876  -0.015029   0.000026  -0.000172
    33  H   -0.009068  -0.028876   0.454322   0.002697   0.000002   0.000010
    34  C    0.017213  -0.015029   0.002697   5.496418  -0.027121   0.430449
    35  H   -0.000049   0.000026   0.000002  -0.027121   0.457658  -0.003754
    36  H    0.000722  -0.000172   0.000010   0.430449  -0.003754   0.460725
    37  H    0.000318   0.000079  -0.000008  -0.008582  -0.000016   0.002379
    38  H   -0.000000  -0.000235   0.000006   0.000093  -0.000000  -0.000001
    39  H    0.000010   0.000388  -0.000024  -0.001520   0.000000   0.000003
    40  N    0.000006   0.000332  -0.000011  -0.000378   0.000000  -0.000009
    41  O    0.000005   0.000176   0.000001  -0.000787   0.000000  -0.000026
    42  O   -0.000000   0.000043   0.000002  -0.000035   0.000000  -0.000001
              37         38         39         40         41         42
     1  C   -0.000000  -0.000000   0.000027  -0.000000  -0.000000   0.000000
     2  C    0.000000   0.000002   0.000016   0.000000   0.000000  -0.000000
     3  C   -0.000000  -0.000059   0.000857   0.000002   0.000000   0.000000
     4  C   -0.000002  -0.000020   0.000613   0.000001  -0.000001   0.000000
     5  C    0.000001  -0.000002   0.000418  -0.000000  -0.000000  -0.000000
     6  C    0.000000   0.000001  -0.000084  -0.000000   0.000000  -0.000000
     7  H    0.000000  -0.000000   0.000000   0.000000  -0.000000  -0.000000
     8  H    0.000000   0.000000   0.000000   0.000000   0.000000  -0.000000
     9  H   -0.000000   0.000000  -0.000000  -0.000000   0.000000  -0.000000
    10  H   -0.000001  -0.000012   0.000071  -0.000000  -0.000000   0.000000
    11  C    0.000003  -0.000002   0.000309  -0.000000  -0.000000   0.000000
    12  C    0.000367   0.000035  -0.001057  -0.000014  -0.000005  -0.000000
    13  N   -0.000079  -0.000004  -0.000320   0.000003   0.000002  -0.000001
    14  C   -0.000001   0.000000  -0.000206   0.000000  -0.000000  -0.000000
    15  H    0.000000  -0.000000   0.000202  -0.000000   0.000000   0.000000
    16  H    0.000000  -0.000000   0.000004  -0.000000  -0.000000   0.000000
    17  H   -0.000000   0.000000  -0.000002   0.000000   0.000000   0.000000
    18  C    0.000000   0.000000  -0.000007  -0.000000  -0.000000  -0.000000
    19  H    0.000000   0.000000   0.000000   0.000000  -0.000000   0.000000
    20  H   -0.000000  -0.000000   0.000000  -0.000000  -0.000000  -0.000000
    21  H   -0.000000  -0.000000   0.000000  -0.000000  -0.000000  -0.000000
    22  C   -0.000458  -0.000016   0.000450   0.000046   0.000013  -0.000000
    23  C   -0.024245  -0.005033   0.032726   0.006363  -0.001809  -0.002187
    24  C    0.004575   0.007625  -0.063503  -0.002177   0.001206   0.000910
    25  O   -0.000066  -0.000128   0.011306   0.000004  -0.000000  -0.000000
    26  C   -0.003700  -0.023517   0.414453   0.008343  -0.002129  -0.002986
    27  C    0.006779   0.405480  -0.040545  -0.061350   0.021495   0.024129
    28  C   -0.032891  -0.033477   0.010362   0.418643  -0.156760  -0.154403
    29  C    0.409870   0.008394  -0.005252  -0.056431   0.022251   0.021622
    30  C   -0.000427   0.000008  -0.000470   0.000198  -0.000161   0.000009
    31  H    0.000318  -0.000000   0.000010   0.000006   0.000005  -0.000000
    32  H    0.000079  -0.000235   0.000388   0.000332   0.000176   0.000043
    33  H   -0.000008   0.000006  -0.000024  -0.000011   0.000001   0.000002
    34  C   -0.008582   0.000093  -0.001520  -0.000378  -0.000787  -0.000035
    35  H   -0.000016  -0.000000   0.000000   0.000000   0.000000   0.000000
    36  H    0.002379  -0.000001   0.000003  -0.000009  -0.000026  -0.000001
    37  H    0.441727  -0.000184   0.000044  -0.006437   0.019774   0.001144
    38  H   -0.000184   0.444472  -0.006223  -0.005473   0.000965   0.018158
    39  H    0.000044  -0.006223   0.487809  -0.000068   0.000002  -0.000077
    40  N   -0.006437  -0.005473  -0.000068   5.477662   0.364035   0.361043
    41  O    0.019774   0.000965   0.000002   0.364035   8.276189  -0.135809
    42  O    0.001144   0.018158  -0.000077   0.361043  -0.135809   8.277125
 Mulliken charges:
               1
     1  C   -0.161280
     2  C   -0.154456
     3  C   -0.210027
     4  C    0.136030
     5  C   -0.044044
     6  C   -0.183190
     7  H    0.169486
     8  H    0.170740
     9  H    0.176764
    10  H    0.191227
    11  C    0.052411
    12  C    0.116000
    13  N   -0.009493
    14  C   -0.437483
    15  H    0.180477
    16  H    0.169569
    17  H    0.169228
    18  C   -0.407545
    19  H    0.171834
    20  H    0.178371
    21  H    0.173894
    22  C   -0.202066
    23  C   -0.073624
    24  C    0.271568
    25  O   -0.467933
    26  C   -0.304013
    27  C   -0.136963
    28  C   -0.026230
    29  C   -0.147035
    30  C   -0.416382
    31  H    0.206223
    32  H    0.214283
    33  H    0.205823
    34  C   -0.161282
    35  H    0.189619
    36  H    0.182675
    37  H    0.190037
    38  H    0.189146
    39  H    0.159286
    40  N    0.495669
    41  O   -0.408626
    42  O   -0.408686
 Sum of Mulliken charges =  -0.00000
 Mulliken charges with hydrogens summed into heavy atoms:
               1
     1  C    0.008205
     2  C    0.016284
     3  C   -0.018800
     4  C    0.136030
     5  C   -0.044044
     6  C   -0.006427
    11  C    0.052411
    12  C    0.116000
    13  N   -0.009493
    14  C    0.081792
    18  C    0.116554
    22  C   -0.012448
    23  C   -0.073624
    24  C    0.271568
    25  O   -0.467933
    26  C   -0.144727
    27  C    0.052183
    28  C   -0.026230
    29  C    0.043002
    30  C    0.209947
    34  C    0.021393
    40  N    0.495669
    41  O   -0.408626
    42  O   -0.408686
 Electronic spatial extent (au):  <R**2>=           7745.8713
 Charge=              0.0000 electrons
 Dipole moment (field-independent basis, Debye):
    X=             12.6918    Y=              1.7224    Z=             -5.2524  Tot=             13.8432
 Quadrupole moment (field-independent basis, Debye-Ang):
   XX=           -173.0608   YY=           -123.0849   ZZ=           -145.5459
   XY=             -6.4778   XZ=             -4.9613   YZ=             -5.5413
 Traceless Quadrupole moment (field-independent basis, Debye-Ang):
   XX=            -25.8303   YY=             24.1457   ZZ=              1.6846
   XY=             -6.4778   XZ=             -4.9613   YZ=             -5.5413
 Octapole moment (field-independent basis, Debye-Ang**2):
  XXX=            386.1518  YYY=              5.8584  ZZZ=            -33.1859  XYY=             30.4974
  XXY=             49.2738  XXZ=             52.2454  XZZ=             -9.9934  YZZ=            -10.8649
  YYZ=            -12.9720  XYZ=             -1.0417
 Hexadecapole moment (field-independent basis, Debye-Ang**3):
 XXXX=          -8693.5002 YYYY=          -1941.1310 ZZZZ=           -930.1323 XXXY=           -235.5353
 XXXZ=           -122.3536 YYYX=            -78.2350 YYYZ=            -20.4374 ZZZX=             19.0652
 ZZZY=            -12.3276 XXYY=          -1540.6464 XXZZ=          -1401.2142 YYZZ=           -530.2569
 XXYZ=            -39.9010 YYXZ=             11.9685 ZZXY=             38.8990
 N-N= 2.076568035090D+03 E-N=-6.643810795918D+03  KE= 1.064720542194D+03
 No NMR shielding tensors so no spin-rotation constants.
 Leave Link  601 at Sun Mar 10 11:11:44 2024, MaxMem=  2684354560 cpu:              20.0 elap:               1.0
 (Enter /s/ls4/groups/g0130/bin/g16/l9999.exe)
 Electronic transition elements 
                 1             2             3             4             5 
      1  -0.106982D+04 -0.106976D+04 -0.106975D+04 -0.106975D+04 -0.106972D+04
      2  -0.929509D+00 -0.696540D+00  0.155618D+01  0.198257D+01 -0.302914D+00
      3   0.887118D-01  0.222694D+00  0.935915D+00 -0.121961D+01  0.360079D+00
      4   0.162900D+01  0.777219D+00 -0.756043D+00 -0.104480D+01  0.423452D+00
      5   0.602010D-01  0.838361D-01 -0.198407D+00 -0.269432D+00  0.498517D-01
      6  -0.628045D-02 -0.275797D-01 -0.118392D+00  0.165290D+00 -0.580816D-01
      7  -0.104275D+00 -0.949942D-01  0.957177D-01  0.141873D+00 -0.686991D-01
      8  -0.706688D+00 -0.784677D+00  0.694994D+00  0.548905D+00 -0.704105D+00
      9   0.983600D+00  0.327221D+00  0.229626D+00  0.717939D+00 -0.417621D-01
     10  -0.765197D+00 -0.251570D+00 -0.255866D+00  0.446390D+00 -0.273168D-01
     11  -0.146378D-01  0.223314D+00  0.322918D+00 -0.165760D+01  0.723398D+00
     12  -0.870272D-01 -0.730190D-01 -0.159348D+00 -0.612231D-02 -0.834771D-01
     13   0.743289D-01  0.235226D+00  0.144009D+00 -0.840334D+00  0.139681D+00
     14  -0.119570D+00 -0.305937D+00 -0.528902D-01  0.727395D+00  0.424296D-01
     15  -0.236118D-01 -0.246834D+00 -0.163289D+00  0.147280D+01 -0.568998D+00
     16   0.251665D-01  0.204806D+00 -0.243830D+00 -0.725342D+00 -0.907958D-01
 1\1\GINC-N104\FOpt\RM062X TD-FC\def2TZVP\C19H18N2O3\ARTD\10-Mar-2024\0
 \\#p M062X/def2TZVP SCRF(PCM,Solvent=acetone) TD(Singlets,NStates=5, r
 oot=1) integral=ultrafine opt guess=(read) geom=(allcheck) gfinput\\TI
 TLE\\0,1\C,-2.0024653759,2.0018291772,-0.0898086812\C,-1.030712216,1.0
 950664713,-0.5032120189\C,0.2626209161,1.5107664083,-0.8031779474\C,0.
 5359567519,2.865005327,-0.6833664501\C,-0.4213032944,3.7839397954,-0.2
 544512933\C,-1.6980474106,3.3569307745,0.0457583398\H,-3.0010777851,1.
 6507428019,0.1332520173\H,-1.2842641781,0.0473474508,-0.597839914\H,-2
 .451496937,4.0572477939,0.3861556612\H,1.0157317447,0.8068677921,-1.13
 1865963\C,0.2216756936,5.1446988798,-0.1305120326\C,1.5767217354,4.871
 3767714,-0.7595483309\N,1.7430648162,3.5230412342,-0.9319910153\C,-0.5
 617424942,6.2508515253,-0.8348200213\H,-0.6905338229,6.0163590346,-1.8
 892921533\H,-0.0346423048,7.2024528744,-0.7493091094\H,-1.5408293597,6
 .3630987817,-0.3661678536\C,0.4128968796,5.5011388056,1.3587229622\H,0
 .9691337361,4.7206068678,1.8783930339\H,-0.5628306809,5.6111709012,1.8
 348735224\H,0.9537931323,6.4438421924,1.4538566554\C,2.4978958586,5.85
 58001569,-1.1362123472\C,3.3142795641,4.7211086175,-3.1689988423\C,1.9
 628227838,4.3137523556,-3.6304649656\O,0.9717825645,5.0230793174,-3.41
 71665773\C,1.8681370978,3.0782495864,-4.3755162706\C,2.9799893991,2.43
 91100127,-4.8307890163\C,4.2498013767,2.9796683216,-4.5262022805\C,4.4
 268254892,4.0864541288,-3.724589942\C,2.9982079026,2.7835866133,-0.923
 3331061\H,3.8220843105,3.4789313071,-0.7990187237\H,3.1348275146,2.223
 2555993,-1.8494951661\H,2.9843372241,2.0851859398,-0.0846907746\C,3.42
 87928667,5.7186451963,-2.158651727\H,2.4551320544,6.7942495615,-0.5916
 568955\H,4.2905618633,6.3771229981,-2.1809249273\H,5.4257779414,4.4115
 889282,-3.4691084633\H,2.9160194601,1.5469945319,-5.4355628779\H,0.875
 6805246,2.7351906689,-4.6363022116\N,5.431478699,2.3077784515,-5.05439
 55746\O,6.5199180389,2.8011314273,-4.8350248085\O,5.2704279195,1.28454
 46189,-5.6903139097\\Version=ES64L-G16RevA.03\State=1-A\HF=-1069.87686
 97\RMSD=6.100e-09\RMSF=1.271e-05\Dipole=-1.2756101,0.2654773,2.8219552
 \PG=C01 [X(C19H18N2O3)]\\@


 ORIGINALITY CONSISTS NOT IN SAYING WHAT NO ONE HAS EVER SAID BEFORE, 
 BUT IN SAYING WHAT YOU THINK YOUR SELF.

                                    -- JAMES F. STEPHEN
 Job cpu time:      32 days 21 hours  8 minutes 19.2 seconds.
 Elapsed time:       1 days  8 hours 53 minutes 43.2 seconds.
 File lengths (MBytes):  RWF=   2618 Int=      0 D2E=      0 Chk=    181 Scr=      1
 Normal termination of Gaussian 16 at Sun Mar 10 11:11:44 2024.
