 Entering Gaussian System, Link 0=/s/ls4/groups/g0130/bin/g16/g16
 Input=mc1_s1_b3lyp.gjf
 Output=mc1_s1_b3lyp.log
 Initial command:
 /s/ls4/groups/g0130/bin/g16/l1.exe "/dev/shm/scratch_artd/Gau-22906.inp" -scrdir="/dev/shm/scratch_artd/"
 Entering Link 1 = /s/ls4/groups/g0130/bin/g16/l1.exe PID=     22907.
  
 Copyright (c) 1988,1990,1992,1993,1995,1998,2003,2009,2016,
            Gaussian, Inc.  All Rights Reserved.
  
 This is part of the Gaussian(R) 16 program.  It is based on
 the Gaussian(R) 09 system (copyright 2009, Gaussian, Inc.),
 the Gaussian(R) 03 system (copyright 2003, Gaussian, Inc.),
 the Gaussian(R) 98 system (copyright 1998, Gaussian, Inc.),
 the Gaussian(R) 94 system (copyright 1995, Gaussian, Inc.),
 the Gaussian 92(TM) system (copyright 1992, Gaussian, Inc.),
 the Gaussian 90(TM) system (copyright 1990, Gaussian, Inc.),
 the Gaussian 88(TM) system (copyright 1988, Gaussian, Inc.),
 the Gaussian 86(TM) system (copyright 1986, Carnegie Mellon
 University), and the Gaussian 82(TM) system (copyright 1983,
 Carnegie Mellon University). Gaussian is a federally registered
 trademark of Gaussian, Inc.
  
 This software contains proprietary and confidential information,
 including trade secrets, belonging to Gaussian, Inc.
  
 This software is provided under written license and may be
 used, copied, transmitted, or stored only in accord with that
 written license.
  
 The following legend is applicable only to US Government
 contracts under FAR:
  
                    RESTRICTED RIGHTS LEGEND
  
 Use, reproduction and disclosure by the US Government is
 subject to restrictions as set forth in subparagraphs (a)
 and (c) of the Commercial Computer Software - Restricted
 Rights clause in FAR 52.227-19.
  
 Gaussian, Inc.
 340 Quinnipiac St., Bldg. 40, Wallingford CT 06492
  
  
 ---------------------------------------------------------------
 Warning -- This program may not be used in any manner that
 competes with the business of Gaussian, Inc. or will provide
 assistance to any competitor of Gaussian, Inc.  The licensee
 of this program is prohibited from giving any competitor of
 Gaussian, Inc. access to this program.  By using this program,
 the user acknowledges that Gaussian, Inc. is engaged in the
 business of creating and licensing software in the field of
 computational chemistry and represents and warrants to the
 licensee that it is not a competitor of Gaussian, Inc. and that
 it will not use this program in any manner prohibited above.
 ---------------------------------------------------------------
  

 Cite this work as:
 Gaussian 16, Revision A.03,
 M. J. Frisch, G. W. Trucks, H. B. Schlegel, G. E. Scuseria, 
 M. A. Robb, J. R. Cheeseman, G. Scalmani, V. Barone, 
 G. A. Petersson, H. Nakatsuji, X. Li, M. Caricato, A. V. Marenich, 
 J. Bloino, B. G. Janesko, R. Gomperts, B. Mennucci, H. P. Hratchian, 
 J. V. Ortiz, A. F. Izmaylov, J. L. Sonnenberg, D. Williams-Young, 
 F. Ding, F. Lipparini, F. Egidi, J. Goings, B. Peng, A. Petrone, 
 T. Henderson, D. Ranasinghe, V. G. Zakrzewski, J. Gao, N. Rega, 
 G. Zheng, W. Liang, M. Hada, M. Ehara, K. Toyota, R. Fukuda, 
 J. Hasegawa, M. Ishida, T. Nakajima, Y. Honda, O. Kitao, H. Nakai, 
 T. Vreven, K. Throssell, J. A. Montgomery, Jr., J. E. Peralta, 
 F. Ogliaro, M. J. Bearpark, J. J. Heyd, E. N. Brothers, K. N. Kudin, 
 V. N. Staroverov, T. A. Keith, R. Kobayashi, J. Normand, 
 K. Raghavachari, A. P. Rendell, J. C. Burant, S. S. Iyengar, 
 J. Tomasi, M. Cossi, J. M. Millam, M. Klene, C. Adamo, R. Cammi, 
 J. W. Ochterski, R. L. Martin, K. Morokuma, O. Farkas, 
 J. B. Foresman, and D. J. Fox, Gaussian, Inc., Wallingford CT, 2016.
 
 ******************************************
 Gaussian 16:  ES64L-G16RevA.03 25-Dec-2016
                 9-Mar-2024 
 ******************************************
 %nprocshared=24
 Will use up to   24 processors via shared memory.
 %mem=20GB
 %oldchk=mc1_gs_b3lyp.chk
 %chk=mc1_s1_b3lyp.chk
 Copying data from "mc1_gs_b3lyp.chk" to current chk file "mc1_s1_b3lyp.chk"
 IOpt=  2 FromEx=T IUOpen= 4 IOptOp= 5 NList=   0 IFRang= 0 IUIn= 4 IUOut= 2.
 ----------------------------------------------------------------------
 #p CAM-B3LYP/def2TZVP EmpiricalDispersion=GD3BJ SCRF(PCM,Solvent=aceto
 ne) TD(Singlets,NStates=5, root=1) opt guess=(read) geom=(allcheck) gf
 input
 ----------------------------------------------------------------------
 1/18=20,19=15,26=3,29=7,38=1/1,3;
 2/9=110,12=2,40=1/2;
 3/5=44,7=101,11=9,14=-4,24=10,25=1,30=1,70=2201,71=1,72=19,74=-40,116=-2,124=41/1,2,3,8;
 4/5=1/1;
 5/5=2,38=6,53=19/2;
 8/6=1,10=1,107=1,108=5/1;
 9/8=1,15=2,41=5,42=1,48=1,70=2/14;
 10/5=4,28=1/2;
 6/7=2,8=2,9=2,10=2/1;
 7/12=6,13=5,14=1/1,2,3,16;
 1/18=20,19=15,26=3/3(2);
 2/9=110/2;
 99//99;
 2/9=110/2;
 3/5=44,7=101,11=9,14=-2,25=1,30=1,70=2205,71=1,72=19,74=-40,124=41/1,2,3,8;
 4/5=5,16=3,69=1/1;
 5/5=2,38=5,53=19/2;
 8/6=1,10=1,107=1,108=5/1;
 9/8=1,15=2,41=5,42=1,48=1,49=4,70=2/14;
 10/5=4,28=1/2;
 7/12=6,13=5,14=1/1,2,3,16;
 1/18=20,19=15,26=3/3(-8);
 2/9=110/2;
 6/7=2,8=2,9=2,10=2/1;
 99//99;
 Leave Link    1 at Sat Mar  9 03:56:38 2024, MaxMem=  2684354560 cpu:              14.4 elap:               0.7
 (Enter /s/ls4/groups/g0130/bin/g16/l101.exe)
 Structure from the checkpoint file:  "mc1_s1_b3lyp.chk"
 -----
 TITLE
 -----
 Charge =  0 Multiplicity = 1
 Redundant internal coordinates found in file.  (old form).
 C,0,-2.4051656091,2.2987242007,0.5968036158
 C,0,-1.5804979485,1.2193583506,0.3132255264
 C,0,-0.2646076146,1.4096115338,-0.0885241949
 C,0,0.169227121,2.7123305957,-0.1900898954
 C,0,-0.6362937402,3.8025583435,0.0827817111
 C,0,-1.9381177467,3.6037409077,0.4853512048
 H,0,-3.4261991398,2.1218404542,0.9057408721
 H,0,-1.965877085,0.2131408511,0.4023301838
 H,0,-2.5890967135,4.438868113,0.7072992201
 H,0,0.3743114996,0.5692327884,-0.317062185
 C,0,0.1641372421,5.0601855139,-0.127347059
 C,0,1.4793053884,4.4894749816,-0.6202128331
 N,0,1.4524263165,3.1840956974,-0.569683421
 C,0,-0.4530617755,5.9913088885,-1.173308492
 H,0,-0.5786724339,5.4750575101,-2.1214251549
 H,0,0.1877573655,6.8578627883,-1.3321363935
 H,0,-1.4219785163,6.3400024033,-0.8181915993
 C,0,0.380670969,5.8057170768,1.199080324
 H,0,0.8592815459,5.1680546007,1.9414243334
 H,0,-0.5857693688,6.1209195331,1.5890624241
 H,0,0.9911327236,6.6948808074,1.0500290441
 C,0,2.6077827783,5.2992673705,-0.9514371075
 C,0,3.4592999614,4.3671568853,-3.1606895531
 C,0,2.2410452095,3.7890483928,-3.7071923429
 O,0,1.1237723894,3.9281108245,-3.168104151
 C,0,2.3873613206,3.0481351502,-4.9364416194
 C,0,3.5794804845,2.8954578371,-5.5613854448
 C,0,4.7318434798,3.4985147576,-5.0201563304
 C,0,4.6533621087,4.2332230548,-3.8559292802
 C,0,2.546849653,2.2807187158,-0.8529813043
 H,0,3.4831755243,2.822266053,-0.7849481583
 H,0,2.4378106154,1.8661689736,-1.8532994374
 H,0,2.5336159667,1.4777948683,-0.1209476415
 C,0,3.4797234996,5.1805340714,-1.9747795875
 H,0,2.7455346775,6.1436435025,-0.2868521319
 H,0,4.3203960921,5.8653162474,-1.9289885325
 H,0,5.5494729339,4.7011165352,-3.4738550228
 H,0,3.6618432259,2.3265038056,-6.4753450656
 H,0,1.4888166507,2.604421751,-5.3439730393
 N,0,5.983782289,3.3610872703,-5.6846110447
 O,0,6.9766418076,3.8999690126,-5.2067053033
 O,0,6.0319068524,2.7043889807,-6.7192951334
 Recover connectivity data from disk.
 ITRead=  0  0  0  0  0  0  0  0  0  0  0  0  0  0  0  0  0  0  0  0
 ITRead=  0  0  0  0  0  0  0  0  0  0  0  0  0  0  0  0  0  0  0  0
 ITRead=  0  0
 MicOpt= -1 -1 -1 -1 -1 -1 -1 -1 -1 -1 -1 -1 -1 -1 -1 -1 -1 -1 -1 -1
 MicOpt= -1 -1 -1 -1 -1 -1 -1 -1 -1 -1 -1 -1 -1 -1 -1 -1 -1 -1 -1 -1
 MicOpt= -1 -1
 NAtoms=     42 NQM=       42 NQMF=       0 NMMI=      0 NMMIF=      0
                NMic=       0 NMicF=      0.
                    Isotopes and Nuclear Properties:
 (Nuclear quadrupole moments (NQMom) in fm**2, nuclear magnetic moments (NMagM)
  in nuclear magnetons)

  Atom         1           2           3           4           5           6           7           8           9          10
 IAtWgt=          12          12          12          12          12          12           1           1           1           1
 AtmWgt=  12.0000000  12.0000000  12.0000000  12.0000000  12.0000000  12.0000000   1.0078250   1.0078250   1.0078250   1.0078250
 NucSpn=           0           0           0           0           0           0           1           1           1           1
 AtZEff=   3.6000000   3.6000000   3.6000000   3.6000000   3.6000000   3.6000000   1.0000000   1.0000000   1.0000000   1.0000000
 NQMom=    0.0000000   0.0000000   0.0000000   0.0000000   0.0000000   0.0000000   0.0000000   0.0000000   0.0000000   0.0000000
 NMagM=    0.0000000   0.0000000   0.0000000   0.0000000   0.0000000   0.0000000   2.7928460   2.7928460   2.7928460   2.7928460
 AtZNuc=   6.0000000   6.0000000   6.0000000   6.0000000   6.0000000   6.0000000   1.0000000   1.0000000   1.0000000   1.0000000

  Atom        11          12          13          14          15          16          17          18          19          20
 IAtWgt=          12          12          14          12           1           1           1          12           1           1
 AtmWgt=  12.0000000  12.0000000  14.0030740  12.0000000   1.0078250   1.0078250   1.0078250  12.0000000   1.0078250   1.0078250
 NucSpn=           0           0           2           0           1           1           1           0           1           1
 AtZEff=   3.6000000   3.6000000   4.5500000   3.6000000   1.0000000   1.0000000   1.0000000   3.6000000   1.0000000   1.0000000
 NQMom=    0.0000000   0.0000000   2.0440000   0.0000000   0.0000000   0.0000000   0.0000000   0.0000000   0.0000000   0.0000000
 NMagM=    0.0000000   0.0000000   0.4037610   0.0000000   2.7928460   2.7928460   2.7928460   0.0000000   2.7928460   2.7928460
 AtZNuc=   6.0000000   6.0000000   7.0000000   6.0000000   1.0000000   1.0000000   1.0000000   6.0000000   1.0000000   1.0000000

  Atom        21          22          23          24          25          26          27          28          29          30
 IAtWgt=           1          12          12          12          16          12          12          12          12          12
 AtmWgt=   1.0078250  12.0000000  12.0000000  12.0000000  15.9949146  12.0000000  12.0000000  12.0000000  12.0000000  12.0000000
 NucSpn=           1           0           0           0           0           0           0           0           0           0
 AtZEff=   1.0000000   3.6000000   3.6000000   3.6000000   5.6000000   3.6000000   3.6000000   3.6000000   3.6000000   3.6000000
 NQMom=    0.0000000   0.0000000   0.0000000   0.0000000   0.0000000   0.0000000   0.0000000   0.0000000   0.0000000   0.0000000
 NMagM=    2.7928460   0.0000000   0.0000000   0.0000000   0.0000000   0.0000000   0.0000000   0.0000000   0.0000000   0.0000000
 AtZNuc=   1.0000000   6.0000000   6.0000000   6.0000000   8.0000000   6.0000000   6.0000000   6.0000000   6.0000000   6.0000000

  Atom        31          32          33          34          35          36          37          38          39          40
 IAtWgt=           1           1           1          12           1           1           1           1           1          14
 AtmWgt=   1.0078250   1.0078250   1.0078250  12.0000000   1.0078250   1.0078250   1.0078250   1.0078250   1.0078250  14.0030740
 NucSpn=           1           1           1           0           1           1           1           1           1           2
 AtZEff=   1.0000000   1.0000000   1.0000000   3.6000000   1.0000000   1.0000000   1.0000000   1.0000000   1.0000000   4.5500000
 NQMom=    0.0000000   0.0000000   0.0000000   0.0000000   0.0000000   0.0000000   0.0000000   0.0000000   0.0000000   2.0440000
 NMagM=    2.7928460   2.7928460   2.7928460   0.0000000   2.7928460   2.7928460   2.7928460   2.7928460   2.7928460   0.4037610
 AtZNuc=   1.0000000   1.0000000   1.0000000   6.0000000   1.0000000   1.0000000   1.0000000   1.0000000   1.0000000   7.0000000

  Atom        41          42
 IAtWgt=          16          16
 AtmWgt=  15.9949146  15.9949146
 NucSpn=           0           0
 AtZEff=   5.6000000   5.6000000
 NQMom=    0.0000000   0.0000000
 NMagM=    0.0000000   0.0000000
 AtZNuc=   8.0000000   8.0000000
 Leave Link  101 at Sat Mar  9 03:56:39 2024, MaxMem=  2684354560 cpu:              11.7 elap:               0.6
 (Enter /s/ls4/groups/g0130/bin/g16/l103.exe)

 GradGradGradGradGradGradGradGradGradGradGradGradGradGradGradGradGradGrad
 Berny optimization.
 Initialization pass.
                           ----------------------------
                           !    Initial Parameters    !
                           ! (Angstroms and Degrees)  !
 --------------------------                            --------------------------
 ! Name  Definition              Value          Derivative Info.                !
 --------------------------------------------------------------------------------
 ! R1    R(1,2)                  1.3876         estimate D2E/DX2                !
 ! R2    R(1,6)                  1.3905         estimate D2E/DX2                !
 ! R3    R(1,7)                  1.0813         estimate D2E/DX2                !
 ! R4    R(2,3)                  1.3889         estimate D2E/DX2                !
 ! R5    R(2,8)                  1.0812         estimate D2E/DX2                !
 ! R6    R(3,4)                  1.3768         estimate D2E/DX2                !
 ! R7    R(3,10)                 1.0801         estimate D2E/DX2                !
 ! R8    R(4,5)                  1.3827         estimate D2E/DX2                !
 ! R9    R(4,13)                 1.4189         estimate D2E/DX2                !
 ! R10   R(5,6)                  1.3771         estimate D2E/DX2                !
 ! R11   R(5,11)                 1.5055         estimate D2E/DX2                !
 ! R12   R(6,9)                  1.0819         estimate D2E/DX2                !
 ! R13   R(11,12)                1.516          estimate D2E/DX2                !
 ! R14   R(11,14)                1.5303         estimate D2E/DX2                !
 ! R15   R(11,18)                1.5369         estimate D2E/DX2                !
 ! R16   R(12,13)                1.3066         estimate D2E/DX2                !
 ! R17   R(12,22)                1.4279         estimate D2E/DX2                !
 ! R18   R(13,30)                1.4471         estimate D2E/DX2                !
 ! R19   R(14,15)                1.0868         estimate D2E/DX2                !
 ! R20   R(14,16)                1.0894         estimate D2E/DX2                !
 ! R21   R(14,17)                1.0893         estimate D2E/DX2                !
 ! R22   R(18,19)                1.0894         estimate D2E/DX2                !
 ! R23   R(18,20)                1.0888         estimate D2E/DX2                !
 ! R24   R(18,21)                1.0888         estimate D2E/DX2                !
 ! R25   R(22,34)                1.3497         estimate D2E/DX2                !
 ! R26   R(22,35)                1.0833         estimate D2E/DX2                !
 ! R27   R(23,24)                1.455          estimate D2E/DX2                !
 ! R28   R(23,29)                1.3882         estimate D2E/DX2                !
 ! R29   R(23,34)                1.4382         estimate D2E/DX2                !
 ! R30   R(24,25)                1.2483         estimate D2E/DX2                !
 ! R31   R(24,26)                1.4427         estimate D2E/DX2                !
 ! R32   R(26,27)                1.3546         estimate D2E/DX2                !
 ! R33   R(26,39)                1.0818         estimate D2E/DX2                !
 ! R34   R(27,28)                1.4087         estimate D2E/DX2                !
 ! R35   R(27,38)                1.0797         estimate D2E/DX2                !
 ! R36   R(28,29)                1.3789         estimate D2E/DX2                !
 ! R37   R(28,40)                1.424          estimate D2E/DX2                !
 ! R38   R(29,37)                1.0807         estimate D2E/DX2                !
 ! R39   R(30,31)                1.0838         estimate D2E/DX2                !
 ! R40   R(30,32)                1.0883         estimate D2E/DX2                !
 ! R41   R(30,33)                1.0866         estimate D2E/DX2                !
 ! R42   R(34,36)                1.0852         estimate D2E/DX2                !
 ! R43   R(40,41)                1.2266         estimate D2E/DX2                !
 ! R44   R(40,42)                1.2264         estimate D2E/DX2                !
 ! A1    A(2,1,6)              120.9316         estimate D2E/DX2                !
 ! A2    A(2,1,7)              119.4927         estimate D2E/DX2                !
 ! A3    A(6,1,7)              119.5754         estimate D2E/DX2                !
 ! A4    A(1,2,3)              121.0378         estimate D2E/DX2                !
 ! A5    A(1,2,8)              119.6859         estimate D2E/DX2                !
 ! A6    A(3,2,8)              119.276          estimate D2E/DX2                !
 ! A7    A(2,3,4)              116.7098         estimate D2E/DX2                !
 ! A8    A(2,3,10)             120.9998         estimate D2E/DX2                !
 ! A9    A(4,3,10)             122.2875         estimate D2E/DX2                !
 ! A10   A(3,4,5)              123.2238         estimate D2E/DX2                !
 ! A11   A(3,4,13)             128.2649         estimate D2E/DX2                !
 ! A12   A(5,4,13)             108.5112         estimate D2E/DX2                !
 ! A13   A(4,5,6)              119.6422         estimate D2E/DX2                !
 ! A14   A(4,5,11)             108.7462         estimate D2E/DX2                !
 ! A15   A(6,5,11)             131.6083         estimate D2E/DX2                !
 ! A16   A(1,6,5)              118.4535         estimate D2E/DX2                !
 ! A17   A(1,6,9)              120.391          estimate D2E/DX2                !
 ! A18   A(5,6,9)              121.1549         estimate D2E/DX2                !
 ! A19   A(5,11,12)            101.0777         estimate D2E/DX2                !
 ! A20   A(5,11,14)            112.9071         estimate D2E/DX2                !
 ! A21   A(5,11,18)            111.0798         estimate D2E/DX2                !
 ! A22   A(12,11,14)           110.899          estimate D2E/DX2                !
 ! A23   A(12,11,18)           109.936          estimate D2E/DX2                !
 ! A24   A(14,11,18)           110.5822         estimate D2E/DX2                !
 ! A25   A(11,12,13)           110.223          estimate D2E/DX2                !
 ! A26   A(11,12,22)           123.1969         estimate D2E/DX2                !
 ! A27   A(13,12,22)           126.2848         estimate D2E/DX2                !
 ! A28   A(4,13,12)            111.1689         estimate D2E/DX2                !
 ! A29   A(4,13,30)            121.9225         estimate D2E/DX2                !
 ! A30   A(12,13,30)           126.9084         estimate D2E/DX2                !
 ! A31   A(11,14,15)           110.7226         estimate D2E/DX2                !
 ! A32   A(11,14,16)           110.2665         estimate D2E/DX2                !
 ! A33   A(11,14,17)           109.311          estimate D2E/DX2                !
 ! A34   A(15,14,16)           108.5805         estimate D2E/DX2                !
 ! A35   A(15,14,17)           109.4908         estimate D2E/DX2                !
 ! A36   A(16,14,17)           108.4294         estimate D2E/DX2                !
 ! A37   A(11,18,19)           111.4733         estimate D2E/DX2                !
 ! A38   A(11,18,20)           108.9353         estimate D2E/DX2                !
 ! A39   A(11,18,21)           110.9152         estimate D2E/DX2                !
 ! A40   A(19,18,20)           108.3821         estimate D2E/DX2                !
 ! A41   A(19,18,21)           108.964          estimate D2E/DX2                !
 ! A42   A(20,18,21)           108.0765         estimate D2E/DX2                !
 ! A43   A(12,22,34)           129.5353         estimate D2E/DX2                !
 ! A44   A(12,22,35)           113.5914         estimate D2E/DX2                !
 ! A45   A(34,22,35)           116.8436         estimate D2E/DX2                !
 ! A46   A(24,23,29)           119.5876         estimate D2E/DX2                !
 ! A47   A(24,23,34)           123.1148         estimate D2E/DX2                !
 ! A48   A(29,23,34)           117.0857         estimate D2E/DX2                !
 ! A49   A(23,24,25)           122.8836         estimate D2E/DX2                !
 ! A50   A(23,24,26)           116.0505         estimate D2E/DX2                !
 ! A51   A(25,24,26)           121.0606         estimate D2E/DX2                !
 ! A52   A(24,26,27)           122.6982         estimate D2E/DX2                !
 ! A53   A(24,26,39)           116.5751         estimate D2E/DX2                !
 ! A54   A(27,26,39)           120.7254         estimate D2E/DX2                !
 ! A55   A(26,27,28)           119.6292         estimate D2E/DX2                !
 ! A56   A(26,27,38)           121.1334         estimate D2E/DX2                !
 ! A57   A(28,27,38)           119.2345         estimate D2E/DX2                !
 ! A58   A(27,28,29)           120.392          estimate D2E/DX2                !
 ! A59   A(27,28,40)           119.9069         estimate D2E/DX2                !
 ! A60   A(29,28,40)           119.6982         estimate D2E/DX2                !
 ! A61   A(23,29,28)           121.5481         estimate D2E/DX2                !
 ! A62   A(23,29,37)           119.6302         estimate D2E/DX2                !
 ! A63   A(28,29,37)           118.8156         estimate D2E/DX2                !
 ! A64   A(13,30,31)           109.2178         estimate D2E/DX2                !
 ! A65   A(13,30,32)           109.9965         estimate D2E/DX2                !
 ! A66   A(13,30,33)           108.6742         estimate D2E/DX2                !
 ! A67   A(31,30,32)           109.5479         estimate D2E/DX2                !
 ! A68   A(31,30,33)           109.7219         estimate D2E/DX2                !
 ! A69   A(32,30,33)           109.6659         estimate D2E/DX2                !
 ! A70   A(22,34,23)           131.7433         estimate D2E/DX2                !
 ! A71   A(22,34,36)           114.39           estimate D2E/DX2                !
 ! A72   A(23,34,36)           113.7444         estimate D2E/DX2                !
 ! A73   A(28,40,41)           119.1725         estimate D2E/DX2                !
 ! A74   A(28,40,42)           118.6747         estimate D2E/DX2                !
 ! A75   A(41,40,42)           122.1528         estimate D2E/DX2                !
 ! D1    D(6,1,2,3)              0.0777         estimate D2E/DX2                !
 ! D2    D(6,1,2,8)           -179.728          estimate D2E/DX2                !
 ! D3    D(7,1,2,3)            179.8829         estimate D2E/DX2                !
 ! D4    D(7,1,2,8)              0.0772         estimate D2E/DX2                !
 ! D5    D(2,1,6,5)              0.1678         estimate D2E/DX2                !
 ! D6    D(2,1,6,9)            179.9138         estimate D2E/DX2                !
 ! D7    D(7,1,6,5)           -179.6372         estimate D2E/DX2                !
 ! D8    D(7,1,6,9)              0.1088         estimate D2E/DX2                !
 ! D9    D(1,2,3,4)             -0.0896         estimate D2E/DX2                !
 ! D10   D(1,2,3,10)          -179.4844         estimate D2E/DX2                !
 ! D11   D(8,2,3,4)            179.7169         estimate D2E/DX2                !
 ! D12   D(8,2,3,10)             0.3221         estimate D2E/DX2                !
 ! D13   D(2,3,4,5)             -0.1474         estimate D2E/DX2                !
 ! D14   D(2,3,4,13)           179.7521         estimate D2E/DX2                !
 ! D15   D(10,3,4,5)           179.2389         estimate D2E/DX2                !
 ! D16   D(10,3,4,13)           -0.8615         estimate D2E/DX2                !
 ! D17   D(3,4,5,6)              0.3969         estimate D2E/DX2                !
 ! D18   D(3,4,5,11)           179.8161         estimate D2E/DX2                !
 ! D19   D(13,4,5,6)          -179.5199         estimate D2E/DX2                !
 ! D20   D(13,4,5,11)           -0.1008         estimate D2E/DX2                !
 ! D21   D(3,4,13,12)          176.719          estimate D2E/DX2                !
 ! D22   D(3,4,13,30)           -3.1706         estimate D2E/DX2                !
 ! D23   D(5,4,13,12)           -3.3696         estimate D2E/DX2                !
 ! D24   D(5,4,13,30)          176.7409         estimate D2E/DX2                !
 ! D25   D(4,5,6,1)             -0.3935         estimate D2E/DX2                !
 ! D26   D(4,5,6,9)            179.8625         estimate D2E/DX2                !
 ! D27   D(11,5,6,1)          -179.6579         estimate D2E/DX2                !
 ! D28   D(11,5,6,9)             0.5981         estimate D2E/DX2                !
 ! D29   D(4,5,11,12)            2.9069         estimate D2E/DX2                !
 ! D30   D(4,5,11,14)          121.4192         estimate D2E/DX2                !
 ! D31   D(4,5,11,18)         -113.6977         estimate D2E/DX2                !
 ! D32   D(6,5,11,12)         -177.7683         estimate D2E/DX2                !
 ! D33   D(6,5,11,14)          -59.2559         estimate D2E/DX2                !
 ! D34   D(6,5,11,18)           65.6271         estimate D2E/DX2                !
 ! D35   D(5,11,12,13)          -5.0347         estimate D2E/DX2                !
 ! D36   D(5,11,12,22)        -179.144          estimate D2E/DX2                !
 ! D37   D(14,11,12,13)       -124.9897         estimate D2E/DX2                !
 ! D38   D(14,11,12,22)         60.901          estimate D2E/DX2                !
 ! D39   D(18,11,12,13)        112.4087         estimate D2E/DX2                !
 ! D40   D(18,11,12,22)        -61.7006         estimate D2E/DX2                !
 ! D41   D(5,11,14,15)         -56.6036         estimate D2E/DX2                !
 ! D42   D(5,11,14,16)        -176.7925         estimate D2E/DX2                !
 ! D43   D(5,11,14,17)          64.0981         estimate D2E/DX2                !
 ! D44   D(12,11,14,15)         56.0173         estimate D2E/DX2                !
 ! D45   D(12,11,14,16)        -64.1716         estimate D2E/DX2                !
 ! D46   D(12,11,14,17)        176.719          estimate D2E/DX2                !
 ! D47   D(18,11,14,15)        178.2431         estimate D2E/DX2                !
 ! D48   D(18,11,14,16)         58.0542         estimate D2E/DX2                !
 ! D49   D(18,11,14,17)        -61.0552         estimate D2E/DX2                !
 ! D50   D(5,11,18,19)          56.2696         estimate D2E/DX2                !
 ! D51   D(5,11,18,20)         -63.2825         estimate D2E/DX2                !
 ! D52   D(5,11,18,21)         177.8827         estimate D2E/DX2                !
 ! D53   D(12,11,18,19)        -54.7604         estimate D2E/DX2                !
 ! D54   D(12,11,18,20)       -174.3125         estimate D2E/DX2                !
 ! D55   D(12,11,18,21)         66.8527         estimate D2E/DX2                !
 ! D56   D(14,11,18,19)       -177.5488         estimate D2E/DX2                !
 ! D57   D(14,11,18,20)         62.8991         estimate D2E/DX2                !
 ! D58   D(14,11,18,21)        -55.9357         estimate D2E/DX2                !
 ! D59   D(11,12,13,4)           5.3703         estimate D2E/DX2                !
 ! D60   D(11,12,13,30)       -174.747          estimate D2E/DX2                !
 ! D61   D(22,12,13,4)         179.2543         estimate D2E/DX2                !
 ! D62   D(22,12,13,30)         -0.8629         estimate D2E/DX2                !
 ! D63   D(11,12,22,34)       -139.6106         estimate D2E/DX2                !
 ! D64   D(11,12,22,35)         38.3169         estimate D2E/DX2                !
 ! D65   D(13,12,22,34)         47.251          estimate D2E/DX2                !
 ! D66   D(13,12,22,35)       -134.8215         estimate D2E/DX2                !
 ! D67   D(4,13,30,31)        -160.7395         estimate D2E/DX2                !
 ! D68   D(4,13,30,32)          79.0006         estimate D2E/DX2                !
 ! D69   D(4,13,30,33)         -41.0668         estimate D2E/DX2                !
 ! D70   D(12,13,30,31)         19.3894         estimate D2E/DX2                !
 ! D71   D(12,13,30,32)       -100.8706         estimate D2E/DX2                !
 ! D72   D(12,13,30,33)        139.062          estimate D2E/DX2                !
 ! D73   D(12,22,34,23)         11.1926         estimate D2E/DX2                !
 ! D74   D(12,22,34,36)       -173.1522         estimate D2E/DX2                !
 ! D75   D(35,22,34,23)       -166.6787         estimate D2E/DX2                !
 ! D76   D(35,22,34,36)          8.9765         estimate D2E/DX2                !
 ! D77   D(29,23,24,25)       -176.3968         estimate D2E/DX2                !
 ! D78   D(29,23,24,26)          2.7697         estimate D2E/DX2                !
 ! D79   D(34,23,24,25)         -1.8439         estimate D2E/DX2                !
 ! D80   D(34,23,24,26)        177.3225         estimate D2E/DX2                !
 ! D81   D(24,23,29,28)         -3.7195         estimate D2E/DX2                !
 ! D82   D(24,23,29,37)        177.1875         estimate D2E/DX2                !
 ! D83   D(34,23,29,28)       -178.596          estimate D2E/DX2                !
 ! D84   D(34,23,29,37)          2.311          estimate D2E/DX2                !
 ! D85   D(24,23,34,22)         20.6184         estimate D2E/DX2                !
 ! D86   D(24,23,34,36)       -155.0587         estimate D2E/DX2                !
 ! D87   D(29,23,34,22)       -164.7016         estimate D2E/DX2                !
 ! D88   D(29,23,34,36)         19.6213         estimate D2E/DX2                !
 ! D89   D(23,24,26,27)         -0.3101         estimate D2E/DX2                !
 ! D90   D(23,24,26,39)        179.28           estimate D2E/DX2                !
 ! D91   D(25,24,26,27)        178.8727         estimate D2E/DX2                !
 ! D92   D(25,24,26,39)         -1.5372         estimate D2E/DX2                !
 ! D93   D(24,26,27,28)         -1.2896         estimate D2E/DX2                !
 ! D94   D(24,26,27,38)        179.338          estimate D2E/DX2                !
 ! D95   D(39,26,27,28)        179.1368         estimate D2E/DX2                !
 ! D96   D(39,26,27,38)         -0.2355         estimate D2E/DX2                !
 ! D97   D(26,27,28,29)          0.4522         estimate D2E/DX2                !
 ! D98   D(26,27,28,40)       -178.9205         estimate D2E/DX2                !
 ! D99   D(38,27,28,29)        179.8366         estimate D2E/DX2                !
 ! D100  D(38,27,28,40)          0.4639         estimate D2E/DX2                !
 ! D101  D(27,28,29,23)          2.0996         estimate D2E/DX2                !
 ! D102  D(27,28,29,37)       -178.8003         estimate D2E/DX2                !
 ! D103  D(40,28,29,23)       -178.5264         estimate D2E/DX2                !
 ! D104  D(40,28,29,37)          0.5737         estimate D2E/DX2                !
 ! D105  D(27,28,40,41)        179.4689         estimate D2E/DX2                !
 ! D106  D(27,28,40,42)         -0.5655         estimate D2E/DX2                !
 ! D107  D(29,28,40,41)          0.0918         estimate D2E/DX2                !
 ! D108  D(29,28,40,42)       -179.9426         estimate D2E/DX2                !
 --------------------------------------------------------------------------------
 Trust Radius=3.00D-01 FncErr=1.00D-07 GrdErr=1.00D-06 EigMax=2.50D+02 EigMin=1.00D-04
 Number of steps in this run=    237 maximum allowed number of steps=    252.
 GradGradGradGradGradGradGradGradGradGradGradGradGradGradGradGradGradGrad

 Leave Link  103 at Sat Mar  9 03:56:39 2024, MaxMem=  2684354560 cpu:               0.5 elap:               0.0
 (Enter /s/ls4/groups/g0130/bin/g16/l202.exe)
                          Input orientation:                          
 ---------------------------------------------------------------------
 Center     Atomic      Atomic             Coordinates (Angstroms)
 Number     Number       Type             X           Y           Z
 ---------------------------------------------------------------------
      1          6           0       -2.405166    2.298724    0.596804
      2          6           0       -1.580498    1.219358    0.313226
      3          6           0       -0.264608    1.409612   -0.088524
      4          6           0        0.169227    2.712331   -0.190090
      5          6           0       -0.636294    3.802558    0.082782
      6          6           0       -1.938118    3.603741    0.485351
      7          1           0       -3.426199    2.121840    0.905741
      8          1           0       -1.965877    0.213141    0.402330
      9          1           0       -2.589097    4.438868    0.707299
     10          1           0        0.374311    0.569233   -0.317062
     11          6           0        0.164137    5.060186   -0.127347
     12          6           0        1.479305    4.489475   -0.620213
     13          7           0        1.452426    3.184096   -0.569683
     14          6           0       -0.453062    5.991309   -1.173308
     15          1           0       -0.578672    5.475058   -2.121425
     16          1           0        0.187757    6.857863   -1.332136
     17          1           0       -1.421979    6.340002   -0.818192
     18          6           0        0.380671    5.805717    1.199080
     19          1           0        0.859282    5.168055    1.941424
     20          1           0       -0.585769    6.120920    1.589062
     21          1           0        0.991133    6.694881    1.050029
     22          6           0        2.607783    5.299267   -0.951437
     23          6           0        3.459300    4.367157   -3.160690
     24          6           0        2.241045    3.789048   -3.707192
     25          8           0        1.123772    3.928111   -3.168104
     26          6           0        2.387361    3.048135   -4.936442
     27          6           0        3.579480    2.895458   -5.561385
     28          6           0        4.731843    3.498515   -5.020156
     29          6           0        4.653362    4.233223   -3.855929
     30          6           0        2.546850    2.280719   -0.852981
     31          1           0        3.483176    2.822266   -0.784948
     32          1           0        2.437811    1.866169   -1.853299
     33          1           0        2.533616    1.477795   -0.120948
     34          6           0        3.479723    5.180534   -1.974780
     35          1           0        2.745535    6.143644   -0.286852
     36          1           0        4.320396    5.865316   -1.928989
     37          1           0        5.549473    4.701117   -3.473855
     38          1           0        3.661843    2.326504   -6.475345
     39          1           0        1.488817    2.604422   -5.343973
     40          7           0        5.983782    3.361087   -5.684611
     41          8           0        6.976642    3.899969   -5.206705
     42          8           0        6.031907    2.704389   -6.719295
 ---------------------------------------------------------------------
                    Distance matrix (angstroms):
                    1          2          3          4          5
     1  C    0.000000
     2  C    1.387632   0.000000
     3  C    2.417061   1.388944   0.000000
     4  C    2.723558   2.354534   1.376810   0.000000
     5  C    2.377949   2.759991   2.427692   1.382722   0.000000
     6  C    1.390548   2.417188   2.818541   2.385736   1.377075
     7  H    1.081314   2.138261   3.389911   3.804815   3.359412
     8  H    2.140199   1.081171   2.137007   3.339997   3.841070
     9  H    2.150873   3.396735   3.900382   3.375587   2.146707
    10  H    3.398792   2.154346   1.080131   2.156629   3.411098
    11  C    3.840753   4.241440   3.675870   2.348699   1.505480
    12  C    4.622730   4.574644   3.579034   2.249345   2.332770
    13  N    4.126208   3.719993   2.515654   1.418892   2.273974
    14  C    4.536429   5.123710   4.712136   3.479319   2.530211
    15  H    4.562230   5.004214   4.556224   3.452835   2.767508
    16  H    5.588363   6.134059   5.606661   4.300006   3.466401
    17  H    4.393267   5.246544   5.116706   4.010792   2.804938
    18  C    4.519139   5.066124   4.626019   3.397579   2.508582
    19  H    4.549470   4.918918   4.416980   3.324170   2.748796
    20  H    4.347868   5.161642   5.011374   3.918403   2.765182
    21  H    5.573728   6.094055   5.550429   4.251368   3.456821
    22  C    6.044002   5.982201   4.911687   3.635718   3.719379
    23  C    7.265613   6.883043   5.661516   4.731542   5.254785
    24  C    6.506360   6.113204   5.003476   4.221583   4.758484
    25  O    5.411362   5.173981   4.213579   3.355272   3.698899
    26  C    7.358446   6.829886   5.763680   5.249832   5.907982
    27  C    8.607867   7.996608   6.851056   6.365075   7.102972
    28  C    9.161148   8.572349   7.324550   6.690672   7.412781
    29  C    8.566909   8.082465   6.808271   5.988235   6.609037
    30  C    5.159908   4.418317   3.040973   2.505754   3.650212
    31  H    6.070906   5.423660   4.065277   3.368708   4.322494
    32  H    5.444679   4.610748   3.259745   2.937469   4.116811
    33  H    5.057732   4.145025   2.799242   2.668182   3.936287
    34  C    7.039161   6.821416   5.638957   4.498503   4.803538
    35  H    6.487986   6.582039   5.613497   4.291926   4.129658
    36  H    8.020809   7.837921   6.653035   5.495206   5.733320
    37  H    9.253001   8.792105   7.489860   6.609495   7.191716
    38  H    9.317975   8.648272   7.553091   7.200810   7.978831
    39  H    7.109808   6.583539   5.667611   5.321228   5.949899
    40  N   10.533719   9.888346   8.612016   8.026188   8.791082
    41  O   11.147332  10.529955   9.210502   8.539193   9.270650
    42  O   11.174706  10.469497   9.235240   8.775055   9.588489
                    6          7          8          9         10
     6  C    0.000000
     7  H    2.141762   0.000000
     8  H    3.391730   2.455422   0.000000
     9  H    1.081884   2.471586   4.282310   0.000000
    10  H    3.898645   4.283657   2.474027   4.980480   0.000000
    11  C    2.629849   4.753068   5.320842   2.943292   4.499869
    12  C    3.699402   5.656695   5.585867   4.279807   4.084264
    13  N    3.575610   5.206366   4.632082   4.420299   2.839658
    14  C    3.264510   5.304223   6.177255   3.241821   5.551271
    15  H    3.484996   5.340057   5.998454   3.621764   5.313287
    16  H    4.290911   6.363858   7.197141   4.209721   6.372758
    17  H    3.074533   4.978126   6.270880   2.702517   6.064616
    18  C    3.276414   5.305587   6.117026   3.306001   5.451559
    19  H    3.520322   5.358862   5.907749   3.734446   5.146370
    20  H    3.063203   4.952535   6.181818   2.760457   5.947797
    21  H    4.295872   6.359744   7.153766   4.245598   6.306582
    22  C    5.060077   7.067821   6.972785   5.522613   5.269161
    23  C    6.558089   8.305865   7.706069   7.179804   5.659293
    24  C    5.922598   7.495091   6.882840   6.575734   5.034371
    25  O    4.777879   6.368757   6.007906   5.391199   4.469026
    26  C    6.958039   8.293769   7.449185   7.651868   5.615692
    27  C    8.216360   9.565655   8.573898   8.929158   6.571709
    28  C    8.649281  10.176696   9.222608   9.342600   7.048963
    29  C    7.917738   9.613051   8.837882   8.562625   6.652720
    30  C    4.863790   6.228616   5.120096   5.785329   2.817147
    31  H    5.622703   7.147621   6.157056   6.458537   3.867830
    32  H    5.257109   6.485698   5.216592   6.200423   2.880989
    33  H    4.988351   6.081799   4.703042   5.974624   2.350860
    34  C    6.155609   8.083611   7.744689   6.676391   5.801354
    35  H    5.383679   7.462404   7.605474   5.687960   6.057860
    36  H    7.079036   9.058644   8.769228   7.531657   6.798411
    37  H    8.540700  10.314854   9.573256   9.153532   7.336218
    38  H    9.024533  10.235363   9.134547   9.753292   7.198633
    39  H    6.835462   7.965500   7.118506   7.524126   5.536601
    40  N   10.044094  11.554922  10.495595  10.747669   8.250527
    41  O   10.581125  12.196017  11.181352  11.259184   8.865279
    42  O   10.781329  12.162907  10.994927  11.510188   8.806581
                   11         12         13         14         15
    11  C    0.000000
    12  C    1.516013   0.000000
    13  N    2.318418   1.306633   0.000000
    14  C    1.530347   2.509076   3.446113   0.000000
    15  H    2.168002   2.731352   3.432458   1.086839   0.000000
    16  H    2.164190   2.790017   3.959455   1.089399   1.767072
    17  H    2.151967   3.446897   4.275945   1.089263   1.776995
    18  C    1.536917   2.499864   3.339174   2.521465   3.472093
    19  H    2.185103   2.721559   3.254777   3.478729   4.320730
    20  H    2.152575   3.436138   4.176046   2.768592   3.766285
    21  H    2.177697   2.809241   3.893825   2.742980   3.743044
    22  C    2.589920   1.427913   2.440192   3.145937   3.399010
    23  C    4.532058   3.223253   3.484320   4.679116   4.314248
    24  C    4.329507   3.255808   3.291178   4.304501   3.648026
    25  O    3.383592   2.633113   2.722749   3.274508   2.527232
    26  C    5.667315   4.640243   4.467792   5.558007   4.755168
    27  C    6.773433   5.600608   5.433669   6.715721   5.981463
    28  C    6.873306   5.560621   5.537160   6.920658   6.364821
    29  C    5.894008   4.539842   4.705961   6.030165   5.650207
    30  C    3.732198   2.464231   1.447104   4.782317   4.645604
    31  H    4.056691   2.611938   2.073934   5.068296   5.032105
    32  H    4.283718   3.053026   2.087003   5.082943   4.711172
    33  H    4.295113   3.229714   2.069250   5.513576   5.446683
    34  C    3.797447   2.512785   3.173326   4.094693   4.071711
    35  H    2.804093   2.109678   3.242074   3.322654   3.855259
    36  H    4.600939   3.417255   4.154745   4.834545   4.918354
    37  H    6.350582   4.975372   5.246080   6.556488   6.323149
    38  H    7.746228   6.612450   6.363476   7.646884   6.844851
    39  H    5.915973   5.086003   4.809489   5.712822   4.785381
    40  N    8.224256   6.871077   6.835715   8.288720   7.760862
    41  O    8.576491   7.183602   7.247855   8.708759   8.311596
    42  O    9.134237   7.817386   7.682414   9.144213   8.515678
                   16         17         18         19         20
    16  H    0.000000
    17  H    1.767362   0.000000
    18  C    2.747960   2.757606   0.000000
    19  H    3.744676   3.767372   1.089383   0.000000
    20  H    3.110439   2.557756   1.088782   1.766432   0.000000
    21  H    2.519263   3.072343   1.088803   1.772898   1.762557
    22  C    2.903562   4.164116   3.137076   3.382768   4.162694
    23  C    4.500024   5.762490   5.527658   5.782136   6.480618
    24  C    4.390274   5.317089   5.621339   5.976437   6.440405
    25  O    3.581948   4.221393   4.811435   5.264475   5.510134
    26  C    5.687117   6.504417   7.019665   7.357590   7.801520
    27  C    6.714982   7.705671   8.025328   8.297972   8.881543
    28  C    6.747994   7.974966   7.933145   8.139269   8.878952
    29  C    5.761935   7.111690   6.803069   6.991299   7.788442
    30  C    5.171572   5.677199   4.618322   4.358130   5.524855
    31  H    5.238820   6.036233   4.739502   4.452039   5.750944
    32  H    5.500123   5.998717   5.391557   5.272014   6.252583
    33  H    5.992926   6.306658   5.010844   4.546954   5.849214
    34  C    3.750128   5.168050   4.479773   4.712062   5.487579
    35  H    2.853936   4.205835   2.813320   3.078139   3.823239
    36  H    4.291863   5.868054   5.030885   5.238853   6.042555
    37  H    6.163319   7.638038   7.054997   7.179218   8.080233
    38  H    7.684730   8.599814   9.042556   9.315083   9.872916
    39  H    5.989937   6.550572   7.368027   7.748906   8.045909
    40  N    8.047694   9.348864   9.206317   9.363870  10.182436
    41  O    8.357653   9.785174   9.390037   9.493466  10.406976
    42  O    8.968105  10.178463  10.210552  10.384304  11.157738
                   21         22         23         24         25
    21  H    0.000000
    22  C    2.926971   0.000000
    23  C    5.407430   2.544545   0.000000
    24  C    5.712906   3.163771   1.454998   0.000000
    25  O    5.046311   2.999328   2.376448   1.248300   0.000000
    26  C    7.147450   4.582188   2.458082   1.442711   2.344788
    27  C    8.052699   5.289057   2.818454   2.455187   3.581155
    28  C    7.813887   4.930398   2.414855   2.830611   4.078336
    29  C    6.598493   3.709032   1.388193   2.457374   3.608906
    30  C    5.052379   3.020769   3.242115   3.242699   3.177868
    31  H    4.957274   2.632407   2.833973   3.319197   3.531162
    32  H    5.817100   3.553648   3.001275   2.678265   2.776151
    33  H    5.564928   3.911376   4.294803   4.276522   4.156545
    34  C    4.199500   1.349670   1.438187   2.543975   2.922857
    35  H    2.273552   1.083337   3.453159   4.182984   3.979989
    36  H    4.543866   2.051600   2.122040   3.434617   3.937839
    37  H    6.724514   3.920959   2.139725   3.439769   4.503093
    38  H    9.102014   6.360969   3.897721   3.438077   4.465959
    39  H    7.606761   5.273391   3.428814   2.155978   2.572900
    40  N    9.021979   6.128364   3.708823   4.254576   5.502183
    41  O    9.098603   6.257178   4.095868   4.968573   6.197803
    42  O   10.084435   7.192093   4.695400   4.961843   6.180472
                   26         27         28         29         30
    26  C    0.000000
    27  C    1.354627   0.000000
    28  C    2.388817   1.408740   0.000000
    29  C    2.776094   2.418970   1.378905   0.000000
    30  C    4.158006   4.859352   4.860306   4.155402   0.000000
    31  H    4.299619   4.777969   4.466931   3.576459   1.083793
    32  H    3.302326   4.014069   4.237466   3.810793   1.088291
    33  H    5.067183   5.718563   5.737400   5.102528   1.086616
    34  C    3.809439   4.253853   3.697474   2.411130   3.246169
    35  H    5.597244   6.250350   5.774625   4.475246   3.909241
    36  H    4.551693   4.750087   3.914889   2.547095   4.141570
    37  H    3.856223   3.391026   2.122691   1.080703   4.662944
    38  H    2.124448   1.079729   2.153157   3.388219   5.732040
    39  H    1.081825   2.121991   3.379568   3.857670   4.625281
    40  N    3.686725   2.452073   1.423986   2.423781   6.026968
    41  O    4.675485   3.560273   2.288031   2.708003   6.418718
    42  O    4.071786   2.718760   2.282077   3.526554   6.836575
                   31         32         33         34         35
    31  H    0.000000
    32  H    1.774340   0.000000
    33  H    1.774870   1.777936   0.000000
    34  C    2.641427   3.476400   4.247598   0.000000
    35  H    3.438570   4.565659   4.673604   2.077429   0.000000
    36  H    3.357070   4.420751   5.070694   1.085244   2.292219
    37  H    3.876839   4.510606   5.543211   2.600179   4.483296
    38  H    5.714746   4.803485   6.509345   5.332330   7.328548
    39  H    4.980927   3.691938   5.444345   4.685246   6.299199
    40  N    5.527211   5.430253   6.812106   4.831516   6.882199
    41  O    5.737394   5.998555   7.174422   4.930885   6.865952
    42  O    6.459598   6.107213   7.568406   5.929196   8.000315
                   36         37         38         39         40
    36  H    0.000000
    37  H    2.291856   0.000000
    38  H    5.798814   4.267420   0.000000
    39  H    5.505760   4.937854   2.465621   0.000000
    40  N    4.810688   2.621401   2.662147   4.570918   0.000000
    41  O    4.654209   2.383573   3.882413   5.640347   1.226604
    42  O    5.988970   3.840904   2.412366   4.747755   1.226434
                   41         42
    41  O    0.000000
    42  O    2.147059   0.000000
 Stoichiometry    C19H18N2O3
 Framework group  C1[X(C19H18N2O3)]
 Deg. of freedom   120
 Full point group                 C1      NOp   1
 RotChk:  IX=0 Diff= 1.11D-15
 Largest Abelian subgroup         C1      NOp   1
 Largest concise Abelian subgroup C1      NOp   1
                         Standard orientation:                         
 ---------------------------------------------------------------------
 Center     Atomic      Atomic             Coordinates (Angstroms)
 Number     Number       Type             X           Y           Z
 ---------------------------------------------------------------------
      1          6           0        5.036945   -1.668133    0.302311
      2          6           0        4.234427   -2.516743   -0.446920
      3          6           0        2.993924   -2.102073   -0.914218
      4          6           0        2.609545   -0.819179   -0.594780
      5          6           0        3.390750    0.041469    0.154167
      6          6           0        4.621419   -0.376995    0.608785
      7          1           0        5.997509   -2.017536    0.655121
      8          1           0        4.575571   -3.518198   -0.669720
      9          1           0        5.253576    0.276824    1.194763
     10          1           0        2.366179   -2.765907   -1.490364
     11          6           0        2.662756    1.350908    0.302035
     12          6           0        1.358890    1.040929   -0.406584
     13          7           0        1.408951   -0.148755   -0.944579
     14          6           0        2.412919    1.731879    1.762995
     15          1           0        1.862766    0.947594    2.276266
     16          1           0        1.836029    2.654290    1.819083
     17          1           0        3.367892    1.892104    2.261844
     18          6           0        3.402439    2.480574   -0.432020
     19          1           0        3.549937    2.242466   -1.484780
     20          1           0        4.379064    2.620935    0.028360
     21          1           0        2.854591    3.418327   -0.354730
     22          6           0        0.305999    1.993437   -0.558512
     23          6           0       -1.818052    0.725125    0.036886
     24          6           0       -1.291873   -0.295478    0.930487
     25          8           0       -0.103830   -0.314105    1.313189
     26          6           0       -2.233134   -1.293981    1.375947
     27          6           0       -3.534414   -1.292567    0.999540
     28          6           0       -4.015543   -0.268522    0.160258
     29          6           0       -3.168243    0.723739   -0.285702
     30          6           0        0.408424   -0.762611   -1.790886
     31          1           0       -0.233727    0.008230   -2.200831
     32          1           0       -0.188934   -1.464363   -1.212019
     33          1           0        0.910789   -1.288891   -2.597976
     34          6           0       -1.028716    1.822727   -0.453625
     35          1           0        0.656460    2.999182   -0.756692
     36          1           0       -1.615012    2.692450   -0.732181
     37          1           0       -3.568625    1.507768   -0.912530
     38          1           0       -4.214839   -2.058720    1.339901
     39          1           0       -1.848102   -2.063926    2.031142
     40          7           0       -5.387564   -0.248406   -0.220388
     41          8           0       -5.794203    0.654976   -0.943647
     42          8           0       -6.124666   -1.139563    0.187851
 ---------------------------------------------------------------------
 Rotational constants (GHZ):           0.6011919           0.1254424           0.1158443
 Leave Link  202 at Sat Mar  9 03:56:40 2024, MaxMem=  2684354560 cpu:               1.0 elap:               0.1
 (Enter /s/ls4/groups/g0130/bin/g16/l301.exe)
 Standard basis: def2TZVP (5D, 7F)
 Ernie: Thresh=  0.10000D-02 Tol=  0.10000D-05 Strict=F.
 AO basis set in the form of general basis input (Overlap normalization):
      1 0
 S   6 1.00       0.000000000000
      0.1357534968D+05  0.6064550360D-03
      0.2035233368D+04  0.4697908888D-02
      0.4632256236D+03  0.2433247765D-01
      0.1312001960D+03  0.9739996831D-01
      0.4285301589D+02  0.3019558425D+00
      0.1558418577D+02  0.6623360914D+00
 S   2 1.00       0.000000000000
      0.6206713851D+01  0.6559530854D+00
      0.2576489653D+01  0.3758563329D+00
 S   1 1.00       0.000000000000
      0.5769633942D+00  0.1000000000D+01
 S   1 1.00       0.000000000000
      0.2297283136D+00  0.1000000000D+01
 S   1 1.00       0.000000000000
      0.9516444003D-01  0.1000000000D+01
 P   4 1.00       0.000000000000
      0.3469723224D+02  0.1132722000D-01
      0.7958262283D+01  0.7616965920D-01
      0.2378082688D+01  0.3019225220D+00
      0.8143320818D+00  0.7278502735D+00
 P   1 1.00       0.000000000000
      0.2888754725D+00  0.1000000000D+01
 P   1 1.00       0.000000000000
      0.1005682367D+00  0.1000000000D+01
 D   1 1.00       0.000000000000
      0.1097000000D+01  0.1000000000D+01
 D   1 1.00       0.000000000000
      0.3180000000D+00  0.1000000000D+01
 F   1 1.00       0.000000000000
      0.7610000000D+00  0.1000000000D+01
 ****
      2 0
 S   6 1.00       0.000000000000
      0.1357534968D+05  0.6064550360D-03
      0.2035233368D+04  0.4697908888D-02
      0.4632256236D+03  0.2433247765D-01
      0.1312001960D+03  0.9739996831D-01
      0.4285301589D+02  0.3019558425D+00
      0.1558418577D+02  0.6623360914D+00
 S   2 1.00       0.000000000000
      0.6206713851D+01  0.6559530854D+00
      0.2576489653D+01  0.3758563329D+00
 S   1 1.00       0.000000000000
      0.5769633942D+00  0.1000000000D+01
 S   1 1.00       0.000000000000
      0.2297283136D+00  0.1000000000D+01
 S   1 1.00       0.000000000000
      0.9516444003D-01  0.1000000000D+01
 P   4 1.00       0.000000000000
      0.3469723224D+02  0.1132722000D-01
      0.7958262283D+01  0.7616965920D-01
      0.2378082688D+01  0.3019225220D+00
      0.8143320818D+00  0.7278502735D+00
 P   1 1.00       0.000000000000
      0.2888754725D+00  0.1000000000D+01
 P   1 1.00       0.000000000000
      0.1005682367D+00  0.1000000000D+01
 D   1 1.00       0.000000000000
      0.1097000000D+01  0.1000000000D+01
 D   1 1.00       0.000000000000
      0.3180000000D+00  0.1000000000D+01
 F   1 1.00       0.000000000000
      0.7610000000D+00  0.1000000000D+01
 ****
      3 0
 S   6 1.00       0.000000000000
      0.1357534968D+05  0.6064550360D-03
      0.2035233368D+04  0.4697908888D-02
      0.4632256236D+03  0.2433247765D-01
      0.1312001960D+03  0.9739996831D-01
      0.4285301589D+02  0.3019558425D+00
      0.1558418577D+02  0.6623360914D+00
 S   2 1.00       0.000000000000
      0.6206713851D+01  0.6559530854D+00
      0.2576489653D+01  0.3758563329D+00
 S   1 1.00       0.000000000000
      0.5769633942D+00  0.1000000000D+01
 S   1 1.00       0.000000000000
      0.2297283136D+00  0.1000000000D+01
 S   1 1.00       0.000000000000
      0.9516444003D-01  0.1000000000D+01
 P   4 1.00       0.000000000000
      0.3469723224D+02  0.1132722000D-01
      0.7958262283D+01  0.7616965920D-01
      0.2378082688D+01  0.3019225220D+00
      0.8143320818D+00  0.7278502735D+00
 P   1 1.00       0.000000000000
      0.2888754725D+00  0.1000000000D+01
 P   1 1.00       0.000000000000
      0.1005682367D+00  0.1000000000D+01
 D   1 1.00       0.000000000000
      0.1097000000D+01  0.1000000000D+01
 D   1 1.00       0.000000000000
      0.3180000000D+00  0.1000000000D+01
 F   1 1.00       0.000000000000
      0.7610000000D+00  0.1000000000D+01
 ****
      4 0
 S   6 1.00       0.000000000000
      0.1357534968D+05  0.6064550360D-03
      0.2035233368D+04  0.4697908888D-02
      0.4632256236D+03  0.2433247765D-01
      0.1312001960D+03  0.9739996831D-01
      0.4285301589D+02  0.3019558425D+00
      0.1558418577D+02  0.6623360914D+00
 S   2 1.00       0.000000000000
      0.6206713851D+01  0.6559530854D+00
      0.2576489653D+01  0.3758563329D+00
 S   1 1.00       0.000000000000
      0.5769633942D+00  0.1000000000D+01
 S   1 1.00       0.000000000000
      0.2297283136D+00  0.1000000000D+01
 S   1 1.00       0.000000000000
      0.9516444003D-01  0.1000000000D+01
 P   4 1.00       0.000000000000
      0.3469723224D+02  0.1132722000D-01
      0.7958262283D+01  0.7616965920D-01
      0.2378082688D+01  0.3019225220D+00
      0.8143320818D+00  0.7278502735D+00
 P   1 1.00       0.000000000000
      0.2888754725D+00  0.1000000000D+01
 P   1 1.00       0.000000000000
      0.1005682367D+00  0.1000000000D+01
 D   1 1.00       0.000000000000
      0.1097000000D+01  0.1000000000D+01
 D   1 1.00       0.000000000000
      0.3180000000D+00  0.1000000000D+01
 F   1 1.00       0.000000000000
      0.7610000000D+00  0.1000000000D+01
 ****
      5 0
 S   6 1.00       0.000000000000
      0.1357534968D+05  0.6064550360D-03
      0.2035233368D+04  0.4697908888D-02
      0.4632256236D+03  0.2433247765D-01
      0.1312001960D+03  0.9739996831D-01
      0.4285301589D+02  0.3019558425D+00
      0.1558418577D+02  0.6623360914D+00
 S   2 1.00       0.000000000000
      0.6206713851D+01  0.6559530854D+00
      0.2576489653D+01  0.3758563329D+00
 S   1 1.00       0.000000000000
      0.5769633942D+00  0.1000000000D+01
 S   1 1.00       0.000000000000
      0.2297283136D+00  0.1000000000D+01
 S   1 1.00       0.000000000000
      0.9516444003D-01  0.1000000000D+01
 P   4 1.00       0.000000000000
      0.3469723224D+02  0.1132722000D-01
      0.7958262283D+01  0.7616965920D-01
      0.2378082688D+01  0.3019225220D+00
      0.8143320818D+00  0.7278502735D+00
 P   1 1.00       0.000000000000
      0.2888754725D+00  0.1000000000D+01
 P   1 1.00       0.000000000000
      0.1005682367D+00  0.1000000000D+01
 D   1 1.00       0.000000000000
      0.1097000000D+01  0.1000000000D+01
 D   1 1.00       0.000000000000
      0.3180000000D+00  0.1000000000D+01
 F   1 1.00       0.000000000000
      0.7610000000D+00  0.1000000000D+01
 ****
      6 0
 S   6 1.00       0.000000000000
      0.1357534968D+05  0.6064550360D-03
      0.2035233368D+04  0.4697908888D-02
      0.4632256236D+03  0.2433247765D-01
      0.1312001960D+03  0.9739996831D-01
      0.4285301589D+02  0.3019558425D+00
      0.1558418577D+02  0.6623360914D+00
 S   2 1.00       0.000000000000
      0.6206713851D+01  0.6559530854D+00
      0.2576489653D+01  0.3758563329D+00
 S   1 1.00       0.000000000000
      0.5769633942D+00  0.1000000000D+01
 S   1 1.00       0.000000000000
      0.2297283136D+00  0.1000000000D+01
 S   1 1.00       0.000000000000
      0.9516444003D-01  0.1000000000D+01
 P   4 1.00       0.000000000000
      0.3469723224D+02  0.1132722000D-01
      0.7958262283D+01  0.7616965920D-01
      0.2378082688D+01  0.3019225220D+00
      0.8143320818D+00  0.7278502735D+00
 P   1 1.00       0.000000000000
      0.2888754725D+00  0.1000000000D+01
 P   1 1.00       0.000000000000
      0.1005682367D+00  0.1000000000D+01
 D   1 1.00       0.000000000000
      0.1097000000D+01  0.1000000000D+01
 D   1 1.00       0.000000000000
      0.3180000000D+00  0.1000000000D+01
 F   1 1.00       0.000000000000
      0.7610000000D+00  0.1000000000D+01
 ****
      7 0
 S   3 1.00       0.000000000000
      0.3406134100D+02  0.2543930721D-01
      0.5123574600D+01  0.1900859489D+00
      0.1164662600D+01  0.8524411301D+00
 S   1 1.00       0.000000000000
      0.3272304100D+00  0.1000000000D+01
 S   1 1.00       0.000000000000
      0.1030724100D+00  0.1000000000D+01
 P   1 1.00       0.000000000000
      0.8000000000D+00  0.1000000000D+01
 ****
      8 0
 S   3 1.00       0.000000000000
      0.3406134100D+02  0.2543930721D-01
      0.5123574600D+01  0.1900859489D+00
      0.1164662600D+01  0.8524411301D+00
 S   1 1.00       0.000000000000
      0.3272304100D+00  0.1000000000D+01
 S   1 1.00       0.000000000000
      0.1030724100D+00  0.1000000000D+01
 P   1 1.00       0.000000000000
      0.8000000000D+00  0.1000000000D+01
 ****
      9 0
 S   3 1.00       0.000000000000
      0.3406134100D+02  0.2543930721D-01
      0.5123574600D+01  0.1900859489D+00
      0.1164662600D+01  0.8524411301D+00
 S   1 1.00       0.000000000000
      0.3272304100D+00  0.1000000000D+01
 S   1 1.00       0.000000000000
      0.1030724100D+00  0.1000000000D+01
 P   1 1.00       0.000000000000
      0.8000000000D+00  0.1000000000D+01
 ****
     10 0
 S   3 1.00       0.000000000000
      0.3406134100D+02  0.2543930721D-01
      0.5123574600D+01  0.1900859489D+00
      0.1164662600D+01  0.8524411301D+00
 S   1 1.00       0.000000000000
      0.3272304100D+00  0.1000000000D+01
 S   1 1.00       0.000000000000
      0.1030724100D+00  0.1000000000D+01
 P   1 1.00       0.000000000000
      0.8000000000D+00  0.1000000000D+01
 ****
     11 0
 S   6 1.00       0.000000000000
      0.1357534968D+05  0.6064550360D-03
      0.2035233368D+04  0.4697908888D-02
      0.4632256236D+03  0.2433247765D-01
      0.1312001960D+03  0.9739996831D-01
      0.4285301589D+02  0.3019558425D+00
      0.1558418577D+02  0.6623360914D+00
 S   2 1.00       0.000000000000
      0.6206713851D+01  0.6559530854D+00
      0.2576489653D+01  0.3758563329D+00
 S   1 1.00       0.000000000000
      0.5769633942D+00  0.1000000000D+01
 S   1 1.00       0.000000000000
      0.2297283136D+00  0.1000000000D+01
 S   1 1.00       0.000000000000
      0.9516444003D-01  0.1000000000D+01
 P   4 1.00       0.000000000000
      0.3469723224D+02  0.1132722000D-01
      0.7958262283D+01  0.7616965920D-01
      0.2378082688D+01  0.3019225220D+00
      0.8143320818D+00  0.7278502735D+00
 P   1 1.00       0.000000000000
      0.2888754725D+00  0.1000000000D+01
 P   1 1.00       0.000000000000
      0.1005682367D+00  0.1000000000D+01
 D   1 1.00       0.000000000000
      0.1097000000D+01  0.1000000000D+01
 D   1 1.00       0.000000000000
      0.3180000000D+00  0.1000000000D+01
 F   1 1.00       0.000000000000
      0.7610000000D+00  0.1000000000D+01
 ****
     12 0
 S   6 1.00       0.000000000000
      0.1357534968D+05  0.6064550360D-03
      0.2035233368D+04  0.4697908888D-02
      0.4632256236D+03  0.2433247765D-01
      0.1312001960D+03  0.9739996831D-01
      0.4285301589D+02  0.3019558425D+00
      0.1558418577D+02  0.6623360914D+00
 S   2 1.00       0.000000000000
      0.6206713851D+01  0.6559530854D+00
      0.2576489653D+01  0.3758563329D+00
 S   1 1.00       0.000000000000
      0.5769633942D+00  0.1000000000D+01
 S   1 1.00       0.000000000000
      0.2297283136D+00  0.1000000000D+01
 S   1 1.00       0.000000000000
      0.9516444003D-01  0.1000000000D+01
 P   4 1.00       0.000000000000
      0.3469723224D+02  0.1132722000D-01
      0.7958262283D+01  0.7616965920D-01
      0.2378082688D+01  0.3019225220D+00
      0.8143320818D+00  0.7278502735D+00
 P   1 1.00       0.000000000000
      0.2888754725D+00  0.1000000000D+01
 P   1 1.00       0.000000000000
      0.1005682367D+00  0.1000000000D+01
 D   1 1.00       0.000000000000
      0.1097000000D+01  0.1000000000D+01
 D   1 1.00       0.000000000000
      0.3180000000D+00  0.1000000000D+01
 F   1 1.00       0.000000000000
      0.7610000000D+00  0.1000000000D+01
 ****
     13 0
 S   6 1.00       0.000000000000
      0.1973080065D+05  0.5862640263D-03
      0.2957895874D+04  0.4542882059D-02
      0.6732213360D+03  0.2355841345D-01
      0.1906824949D+03  0.9470919329D-01
      0.6229544190D+02  0.2971978491D+00
      0.2265416118D+02  0.6691624690D+00
 S   2 1.00       0.000000000000
      0.8979147743D+01  0.6459668363D+00
      0.3686300237D+01  0.3870057439D+00
 S   1 1.00       0.000000000000
      0.8466007680D+00  0.1000000000D+01
 S   1 1.00       0.000000000000
      0.3364713377D+00  0.1000000000D+01
 S   1 1.00       0.000000000000
      0.1364765367D+00  0.1000000000D+01
 P   4 1.00       0.000000000000
      0.4920038051D+02  0.1144882510D-01
      0.1134679054D+02  0.7842233797D-01
      0.3427397241D+01  0.3081809474D+00
      0.1178552513D+01  0.7202719637D+00
 P   1 1.00       0.000000000000
      0.4164220497D+00  0.1000000000D+01
 P   1 1.00       0.000000000000
      0.1426082601D+00  0.1000000000D+01
 D   1 1.00       0.000000000000
      0.1654000000D+01  0.1000000000D+01
 D   1 1.00       0.000000000000
      0.4690000000D+00  0.1000000000D+01
 F   1 1.00       0.000000000000
      0.1093000000D+01  0.1000000000D+01
 ****
     14 0
 S   6 1.00       0.000000000000
      0.1357534968D+05  0.6064550360D-03
      0.2035233368D+04  0.4697908888D-02
      0.4632256236D+03  0.2433247765D-01
      0.1312001960D+03  0.9739996831D-01
      0.4285301589D+02  0.3019558425D+00
      0.1558418577D+02  0.6623360914D+00
 S   2 1.00       0.000000000000
      0.6206713851D+01  0.6559530854D+00
      0.2576489653D+01  0.3758563329D+00
 S   1 1.00       0.000000000000
      0.5769633942D+00  0.1000000000D+01
 S   1 1.00       0.000000000000
      0.2297283136D+00  0.1000000000D+01
 S   1 1.00       0.000000000000
      0.9516444003D-01  0.1000000000D+01
 P   4 1.00       0.000000000000
      0.3469723224D+02  0.1132722000D-01
      0.7958262283D+01  0.7616965920D-01
      0.2378082688D+01  0.3019225220D+00
      0.8143320818D+00  0.7278502735D+00
 P   1 1.00       0.000000000000
      0.2888754725D+00  0.1000000000D+01
 P   1 1.00       0.000000000000
      0.1005682367D+00  0.1000000000D+01
 D   1 1.00       0.000000000000
      0.1097000000D+01  0.1000000000D+01
 D   1 1.00       0.000000000000
      0.3180000000D+00  0.1000000000D+01
 F   1 1.00       0.000000000000
      0.7610000000D+00  0.1000000000D+01
 ****
     15 0
 S   3 1.00       0.000000000000
      0.3406134100D+02  0.2543930721D-01
      0.5123574600D+01  0.1900859489D+00
      0.1164662600D+01  0.8524411301D+00
 S   1 1.00       0.000000000000
      0.3272304100D+00  0.1000000000D+01
 S   1 1.00       0.000000000000
      0.1030724100D+00  0.1000000000D+01
 P   1 1.00       0.000000000000
      0.8000000000D+00  0.1000000000D+01
 ****
     16 0
 S   3 1.00       0.000000000000
      0.3406134100D+02  0.2543930721D-01
      0.5123574600D+01  0.1900859489D+00
      0.1164662600D+01  0.8524411301D+00
 S   1 1.00       0.000000000000
      0.3272304100D+00  0.1000000000D+01
 S   1 1.00       0.000000000000
      0.1030724100D+00  0.1000000000D+01
 P   1 1.00       0.000000000000
      0.8000000000D+00  0.1000000000D+01
 ****
     17 0
 S   3 1.00       0.000000000000
      0.3406134100D+02  0.2543930721D-01
      0.5123574600D+01  0.1900859489D+00
      0.1164662600D+01  0.8524411301D+00
 S   1 1.00       0.000000000000
      0.3272304100D+00  0.1000000000D+01
 S   1 1.00       0.000000000000
      0.1030724100D+00  0.1000000000D+01
 P   1 1.00       0.000000000000
      0.8000000000D+00  0.1000000000D+01
 ****
     18 0
 S   6 1.00       0.000000000000
      0.1357534968D+05  0.6064550360D-03
      0.2035233368D+04  0.4697908888D-02
      0.4632256236D+03  0.2433247765D-01
      0.1312001960D+03  0.9739996831D-01
      0.4285301589D+02  0.3019558425D+00
      0.1558418577D+02  0.6623360914D+00
 S   2 1.00       0.000000000000
      0.6206713851D+01  0.6559530854D+00
      0.2576489653D+01  0.3758563329D+00
 S   1 1.00       0.000000000000
      0.5769633942D+00  0.1000000000D+01
 S   1 1.00       0.000000000000
      0.2297283136D+00  0.1000000000D+01
 S   1 1.00       0.000000000000
      0.9516444003D-01  0.1000000000D+01
 P   4 1.00       0.000000000000
      0.3469723224D+02  0.1132722000D-01
      0.7958262283D+01  0.7616965920D-01
      0.2378082688D+01  0.3019225220D+00
      0.8143320818D+00  0.7278502735D+00
 P   1 1.00       0.000000000000
      0.2888754725D+00  0.1000000000D+01
 P   1 1.00       0.000000000000
      0.1005682367D+00  0.1000000000D+01
 D   1 1.00       0.000000000000
      0.1097000000D+01  0.1000000000D+01
 D   1 1.00       0.000000000000
      0.3180000000D+00  0.1000000000D+01
 F   1 1.00       0.000000000000
      0.7610000000D+00  0.1000000000D+01
 ****
     19 0
 S   3 1.00       0.000000000000
      0.3406134100D+02  0.2543930721D-01
      0.5123574600D+01  0.1900859489D+00
      0.1164662600D+01  0.8524411301D+00
 S   1 1.00       0.000000000000
      0.3272304100D+00  0.1000000000D+01
 S   1 1.00       0.000000000000
      0.1030724100D+00  0.1000000000D+01
 P   1 1.00       0.000000000000
      0.8000000000D+00  0.1000000000D+01
 ****
     20 0
 S   3 1.00       0.000000000000
      0.3406134100D+02  0.2543930721D-01
      0.5123574600D+01  0.1900859489D+00
      0.1164662600D+01  0.8524411301D+00
 S   1 1.00       0.000000000000
      0.3272304100D+00  0.1000000000D+01
 S   1 1.00       0.000000000000
      0.1030724100D+00  0.1000000000D+01
 P   1 1.00       0.000000000000
      0.8000000000D+00  0.1000000000D+01
 ****
     21 0
 S   3 1.00       0.000000000000
      0.3406134100D+02  0.2543930721D-01
      0.5123574600D+01  0.1900859489D+00
      0.1164662600D+01  0.8524411301D+00
 S   1 1.00       0.000000000000
      0.3272304100D+00  0.1000000000D+01
 S   1 1.00       0.000000000000
      0.1030724100D+00  0.1000000000D+01
 P   1 1.00       0.000000000000
      0.8000000000D+00  0.1000000000D+01
 ****
     22 0
 S   6 1.00       0.000000000000
      0.1357534968D+05  0.6064550360D-03
      0.2035233368D+04  0.4697908888D-02
      0.4632256236D+03  0.2433247765D-01
      0.1312001960D+03  0.9739996831D-01
      0.4285301589D+02  0.3019558425D+00
      0.1558418577D+02  0.6623360914D+00
 S   2 1.00       0.000000000000
      0.6206713851D+01  0.6559530854D+00
      0.2576489653D+01  0.3758563329D+00
 S   1 1.00       0.000000000000
      0.5769633942D+00  0.1000000000D+01
 S   1 1.00       0.000000000000
      0.2297283136D+00  0.1000000000D+01
 S   1 1.00       0.000000000000
      0.9516444003D-01  0.1000000000D+01
 P   4 1.00       0.000000000000
      0.3469723224D+02  0.1132722000D-01
      0.7958262283D+01  0.7616965920D-01
      0.2378082688D+01  0.3019225220D+00
      0.8143320818D+00  0.7278502735D+00
 P   1 1.00       0.000000000000
      0.2888754725D+00  0.1000000000D+01
 P   1 1.00       0.000000000000
      0.1005682367D+00  0.1000000000D+01
 D   1 1.00       0.000000000000
      0.1097000000D+01  0.1000000000D+01
 D   1 1.00       0.000000000000
      0.3180000000D+00  0.1000000000D+01
 F   1 1.00       0.000000000000
      0.7610000000D+00  0.1000000000D+01
 ****
     23 0
 S   6 1.00       0.000000000000
      0.1357534968D+05  0.6064550360D-03
      0.2035233368D+04  0.4697908888D-02
      0.4632256236D+03  0.2433247765D-01
      0.1312001960D+03  0.9739996831D-01
      0.4285301589D+02  0.3019558425D+00
      0.1558418577D+02  0.6623360914D+00
 S   2 1.00       0.000000000000
      0.6206713851D+01  0.6559530854D+00
      0.2576489653D+01  0.3758563329D+00
 S   1 1.00       0.000000000000
      0.5769633942D+00  0.1000000000D+01
 S   1 1.00       0.000000000000
      0.2297283136D+00  0.1000000000D+01
 S   1 1.00       0.000000000000
      0.9516444003D-01  0.1000000000D+01
 P   4 1.00       0.000000000000
      0.3469723224D+02  0.1132722000D-01
      0.7958262283D+01  0.7616965920D-01
      0.2378082688D+01  0.3019225220D+00
      0.8143320818D+00  0.7278502735D+00
 P   1 1.00       0.000000000000
      0.2888754725D+00  0.1000000000D+01
 P   1 1.00       0.000000000000
      0.1005682367D+00  0.1000000000D+01
 D   1 1.00       0.000000000000
      0.1097000000D+01  0.1000000000D+01
 D   1 1.00       0.000000000000
      0.3180000000D+00  0.1000000000D+01
 F   1 1.00       0.000000000000
      0.7610000000D+00  0.1000000000D+01
 ****
     24 0
 S   6 1.00       0.000000000000
      0.1357534968D+05  0.6064550360D-03
      0.2035233368D+04  0.4697908888D-02
      0.4632256236D+03  0.2433247765D-01
      0.1312001960D+03  0.9739996831D-01
      0.4285301589D+02  0.3019558425D+00
      0.1558418577D+02  0.6623360914D+00
 S   2 1.00       0.000000000000
      0.6206713851D+01  0.6559530854D+00
      0.2576489653D+01  0.3758563329D+00
 S   1 1.00       0.000000000000
      0.5769633942D+00  0.1000000000D+01
 S   1 1.00       0.000000000000
      0.2297283136D+00  0.1000000000D+01
 S   1 1.00       0.000000000000
      0.9516444003D-01  0.1000000000D+01
 P   4 1.00       0.000000000000
      0.3469723224D+02  0.1132722000D-01
      0.7958262283D+01  0.7616965920D-01
      0.2378082688D+01  0.3019225220D+00
      0.8143320818D+00  0.7278502735D+00
 P   1 1.00       0.000000000000
      0.2888754725D+00  0.1000000000D+01
 P   1 1.00       0.000000000000
      0.1005682367D+00  0.1000000000D+01
 D   1 1.00       0.000000000000
      0.1097000000D+01  0.1000000000D+01
 D   1 1.00       0.000000000000
      0.3180000000D+00  0.1000000000D+01
 F   1 1.00       0.000000000000
      0.7610000000D+00  0.1000000000D+01
 ****
     25 0
 S   6 1.00       0.000000000000
      0.2703238263D+05  0.5722733521D-03
      0.4052387139D+04  0.4435323349D-02
      0.9223272271D+03  0.2302010771D-01
      0.2612407099D+03  0.9282249067D-01
      0.8535464135D+02  0.2937850001D+00
      0.3103503524D+02  0.6740160450D+00
 S   2 1.00       0.000000000000
      0.1226086073D+02  0.6383993703D+00
      0.4998707601D+01  0.3953458713D+00
 S   1 1.00       0.000000000000
      0.1170310816D+01  0.1000000000D+01
 S   1 1.00       0.000000000000
      0.4647474099D+00  0.1000000000D+01
 S   1 1.00       0.000000000000
      0.1850453636D+00  0.1000000000D+01
 P   4 1.00       0.000000000000
      0.6327495480D+02  0.1201833222D-01
      0.1462704938D+02  0.8300542179D-01
      0.4450122346D+01  0.3199174393D+00
      0.1527579965D+01  0.7071554292D+00
 P   1 1.00       0.000000000000
      0.5293511794D+00  0.1000000000D+01
 P   1 1.00       0.000000000000
      0.1747842127D+00  0.1000000000D+01
 D   1 1.00       0.000000000000
      0.2314000000D+01  0.1000000000D+01
 D   1 1.00       0.000000000000
      0.6450000000D+00  0.1000000000D+01
 F   1 1.00       0.000000000000
      0.1428000000D+01  0.1000000000D+01
 ****
     26 0
 S   6 1.00       0.000000000000
      0.1357534968D+05  0.6064550360D-03
      0.2035233368D+04  0.4697908888D-02
      0.4632256236D+03  0.2433247765D-01
      0.1312001960D+03  0.9739996831D-01
      0.4285301589D+02  0.3019558425D+00
      0.1558418577D+02  0.6623360914D+00
 S   2 1.00       0.000000000000
      0.6206713851D+01  0.6559530854D+00
      0.2576489653D+01  0.3758563329D+00
 S   1 1.00       0.000000000000
      0.5769633942D+00  0.1000000000D+01
 S   1 1.00       0.000000000000
      0.2297283136D+00  0.1000000000D+01
 S   1 1.00       0.000000000000
      0.9516444003D-01  0.1000000000D+01
 P   4 1.00       0.000000000000
      0.3469723224D+02  0.1132722000D-01
      0.7958262283D+01  0.7616965920D-01
      0.2378082688D+01  0.3019225220D+00
      0.8143320818D+00  0.7278502735D+00
 P   1 1.00       0.000000000000
      0.2888754725D+00  0.1000000000D+01
 P   1 1.00       0.000000000000
      0.1005682367D+00  0.1000000000D+01
 D   1 1.00       0.000000000000
      0.1097000000D+01  0.1000000000D+01
 D   1 1.00       0.000000000000
      0.3180000000D+00  0.1000000000D+01
 F   1 1.00       0.000000000000
      0.7610000000D+00  0.1000000000D+01
 ****
     27 0
 S   6 1.00       0.000000000000
      0.1357534968D+05  0.6064550360D-03
      0.2035233368D+04  0.4697908888D-02
      0.4632256236D+03  0.2433247765D-01
      0.1312001960D+03  0.9739996831D-01
      0.4285301589D+02  0.3019558425D+00
      0.1558418577D+02  0.6623360914D+00
 S   2 1.00       0.000000000000
      0.6206713851D+01  0.6559530854D+00
      0.2576489653D+01  0.3758563329D+00
 S   1 1.00       0.000000000000
      0.5769633942D+00  0.1000000000D+01
 S   1 1.00       0.000000000000
      0.2297283136D+00  0.1000000000D+01
 S   1 1.00       0.000000000000
      0.9516444003D-01  0.1000000000D+01
 P   4 1.00       0.000000000000
      0.3469723224D+02  0.1132722000D-01
      0.7958262283D+01  0.7616965920D-01
      0.2378082688D+01  0.3019225220D+00
      0.8143320818D+00  0.7278502735D+00
 P   1 1.00       0.000000000000
      0.2888754725D+00  0.1000000000D+01
 P   1 1.00       0.000000000000
      0.1005682367D+00  0.1000000000D+01
 D   1 1.00       0.000000000000
      0.1097000000D+01  0.1000000000D+01
 D   1 1.00       0.000000000000
      0.3180000000D+00  0.1000000000D+01
 F   1 1.00       0.000000000000
      0.7610000000D+00  0.1000000000D+01
 ****
     28 0
 S   6 1.00       0.000000000000
      0.1357534968D+05  0.6064550360D-03
      0.2035233368D+04  0.4697908888D-02
      0.4632256236D+03  0.2433247765D-01
      0.1312001960D+03  0.9739996831D-01
      0.4285301589D+02  0.3019558425D+00
      0.1558418577D+02  0.6623360914D+00
 S   2 1.00       0.000000000000
      0.6206713851D+01  0.6559530854D+00
      0.2576489653D+01  0.3758563329D+00
 S   1 1.00       0.000000000000
      0.5769633942D+00  0.1000000000D+01
 S   1 1.00       0.000000000000
      0.2297283136D+00  0.1000000000D+01
 S   1 1.00       0.000000000000
      0.9516444003D-01  0.1000000000D+01
 P   4 1.00       0.000000000000
      0.3469723224D+02  0.1132722000D-01
      0.7958262283D+01  0.7616965920D-01
      0.2378082688D+01  0.3019225220D+00
      0.8143320818D+00  0.7278502735D+00
 P   1 1.00       0.000000000000
      0.2888754725D+00  0.1000000000D+01
 P   1 1.00       0.000000000000
      0.1005682367D+00  0.1000000000D+01
 D   1 1.00       0.000000000000
      0.1097000000D+01  0.1000000000D+01
 D   1 1.00       0.000000000000
      0.3180000000D+00  0.1000000000D+01
 F   1 1.00       0.000000000000
      0.7610000000D+00  0.1000000000D+01
 ****
     29 0
 S   6 1.00       0.000000000000
      0.1357534968D+05  0.6064550360D-03
      0.2035233368D+04  0.4697908888D-02
      0.4632256236D+03  0.2433247765D-01
      0.1312001960D+03  0.9739996831D-01
      0.4285301589D+02  0.3019558425D+00
      0.1558418577D+02  0.6623360914D+00
 S   2 1.00       0.000000000000
      0.6206713851D+01  0.6559530854D+00
      0.2576489653D+01  0.3758563329D+00
 S   1 1.00       0.000000000000
      0.5769633942D+00  0.1000000000D+01
 S   1 1.00       0.000000000000
      0.2297283136D+00  0.1000000000D+01
 S   1 1.00       0.000000000000
      0.9516444003D-01  0.1000000000D+01
 P   4 1.00       0.000000000000
      0.3469723224D+02  0.1132722000D-01
      0.7958262283D+01  0.7616965920D-01
      0.2378082688D+01  0.3019225220D+00
      0.8143320818D+00  0.7278502735D+00
 P   1 1.00       0.000000000000
      0.2888754725D+00  0.1000000000D+01
 P   1 1.00       0.000000000000
      0.1005682367D+00  0.1000000000D+01
 D   1 1.00       0.000000000000
      0.1097000000D+01  0.1000000000D+01
 D   1 1.00       0.000000000000
      0.3180000000D+00  0.1000000000D+01
 F   1 1.00       0.000000000000
      0.7610000000D+00  0.1000000000D+01
 ****
     30 0
 S   6 1.00       0.000000000000
      0.1357534968D+05  0.6064550360D-03
      0.2035233368D+04  0.4697908888D-02
      0.4632256236D+03  0.2433247765D-01
      0.1312001960D+03  0.9739996831D-01
      0.4285301589D+02  0.3019558425D+00
      0.1558418577D+02  0.6623360914D+00
 S   2 1.00       0.000000000000
      0.6206713851D+01  0.6559530854D+00
      0.2576489653D+01  0.3758563329D+00
 S   1 1.00       0.000000000000
      0.5769633942D+00  0.1000000000D+01
 S   1 1.00       0.000000000000
      0.2297283136D+00  0.1000000000D+01
 S   1 1.00       0.000000000000
      0.9516444003D-01  0.1000000000D+01
 P   4 1.00       0.000000000000
      0.3469723224D+02  0.1132722000D-01
      0.7958262283D+01  0.7616965920D-01
      0.2378082688D+01  0.3019225220D+00
      0.8143320818D+00  0.7278502735D+00
 P   1 1.00       0.000000000000
      0.2888754725D+00  0.1000000000D+01
 P   1 1.00       0.000000000000
      0.1005682367D+00  0.1000000000D+01
 D   1 1.00       0.000000000000
[...]
     7  H    0.000003  -0.000004  -0.000001   0.000001   0.000000   0.000000
     8  H   -0.000002   0.000000   0.000000  -0.000001  -0.000001   0.000002
     9  H   -0.000013   0.000817  -0.000041  -0.000040  -0.000002  -0.000000
    10  H    0.000011   0.000002  -0.000002  -0.000008   0.000001  -0.000021
    11  C   -0.013340  -0.032704  -0.041760  -0.047492   0.022063  -0.015906
    12  C   -0.013801   0.013003  -0.010281   0.263375   0.002672   0.020736
    13  N    0.000411  -0.000185   0.000530  -0.077030  -0.009295  -0.017817
    14  C    0.010844  -0.007339  -0.008964  -0.003764  -0.009765   0.004143
    15  H   -0.000283   0.000082  -0.000117  -0.006340   0.003772  -0.002675
    16  H   -0.000125  -0.000054   0.002062   0.009539   0.000912  -0.000408
    17  H   -0.000062   0.002135   0.000136  -0.000167  -0.000118   0.000144
    18  C    0.405335   0.416947   0.415148  -0.005934  -0.001358   0.000469
    19  H    0.518517  -0.020387  -0.020496   0.003003   0.000137  -0.000022
    20  H   -0.020387   0.511139  -0.020778  -0.000711  -0.000014  -0.000005
    21  H   -0.020496  -0.020778   0.517201  -0.002101  -0.000078   0.000023
    22  C    0.003003  -0.000711  -0.002101   5.391051   0.001099  -0.040329
    23  C    0.000137  -0.000014  -0.000078   0.001099   6.734986  -0.617884
    24  C   -0.000022  -0.000005   0.000023  -0.040329  -0.617884   5.377619
    25  O   -0.000003   0.000015  -0.000019  -0.030831  -0.261836   0.714473
    26  C   -0.000001  -0.000001   0.000000   0.000408   0.081535   0.238135
    27  C    0.000000   0.000000   0.000000   0.001018  -0.182252   0.151537
    28  C   -0.000000   0.000000   0.000000  -0.003464   0.091420  -0.183836
    29  C    0.000004  -0.000000  -0.000001   0.013651   0.069747   0.246562
    30  C   -0.000318   0.000040  -0.000007  -0.002874  -0.031798   0.007332
    31  H    0.000005   0.000001  -0.000009  -0.014172  -0.009977  -0.002492
    32  H    0.000027  -0.000000   0.000000   0.009156  -0.002079   0.002250
    33  H   -0.000034  -0.000006  -0.000003  -0.002527   0.000875   0.000449
    34  C   -0.000523   0.000080   0.000227   0.371139   0.181458  -0.037120
    35  H    0.000117  -0.000075   0.002354   0.431057   0.007656   0.000246
    36  H   -0.000003  -0.000001   0.000011  -0.049245  -0.051429   0.004758
    37  H    0.000000  -0.000000  -0.000000   0.000092  -0.040416   0.006238
    38  H    0.000000  -0.000000  -0.000000  -0.000006  -0.006733   0.011824
    39  H    0.000000   0.000000   0.000000   0.000042   0.044372  -0.089927
    40  N    0.000000  -0.000000  -0.000000   0.000019   0.009401  -0.002190
    41  O   -0.000000  -0.000000  -0.000000   0.000016  -0.004081   0.001492
    42  O    0.000000  -0.000000  -0.000000  -0.000000  -0.002754   0.001251
              25         26         27         28         29         30
     1  C    0.000043  -0.000051   0.000011  -0.000000  -0.000001  -0.000261
     2  C   -0.000012   0.000091  -0.000063   0.000006  -0.000003  -0.000844
     3  C   -0.001957   0.004983  -0.000701   0.000016  -0.000488  -0.010297
     4  C    0.006492  -0.011104   0.001003   0.000017   0.000936  -0.049760
     5  C    0.010605  -0.002123   0.000407  -0.000059   0.000278   0.006171
     6  C   -0.000189   0.000068  -0.000005  -0.000001  -0.000003   0.001017
     7  H    0.000001  -0.000000   0.000000  -0.000000   0.000000  -0.000001
     8  H    0.000000  -0.000013  -0.000000  -0.000000   0.000000  -0.000001
     9  H   -0.000000   0.000001   0.000000   0.000000  -0.000000   0.000028
    10  H   -0.000002   0.000098   0.000191   0.000018  -0.000060   0.001578
    11  C   -0.031519  -0.000264  -0.000375   0.000193  -0.000827   0.002034
    12  C    0.002671  -0.003545   0.001682  -0.001275   0.005173  -0.049319
    13  N   -0.011982   0.007120  -0.001301   0.002902  -0.009174   0.242786
    14  C   -0.000867   0.000538  -0.000024  -0.000011   0.000121   0.000002
    15  H    0.008004  -0.000159  -0.000013   0.000021  -0.000123  -0.000130
    16  H   -0.001045  -0.000007   0.000001  -0.000001   0.000010  -0.000020
    17  H    0.000585   0.000015  -0.000001   0.000000  -0.000003   0.000030
    18  C    0.000677  -0.000016   0.000003  -0.000002   0.000025   0.000559
    19  H   -0.000003  -0.000001   0.000000  -0.000000   0.000004  -0.000318
    20  H    0.000015  -0.000001   0.000000   0.000000  -0.000000   0.000040
    21  H   -0.000019   0.000000   0.000000   0.000000  -0.000001  -0.000007
    22  C   -0.030831   0.000408   0.001018  -0.003464   0.013651  -0.002874
    23  C   -0.261836   0.081535  -0.182252   0.091420   0.069747  -0.031798
    24  C    0.714473   0.238135   0.151537  -0.183836   0.246562   0.007332
    25  O    8.076817  -0.120969   0.016051  -0.004734   0.014479   0.002211
    26  C   -0.120969   5.665473   0.094503   0.126022  -0.259498  -0.004288
    27  C    0.016051   0.094503   5.528440   0.109005   0.090644   0.002938
    28  C   -0.004734   0.126022   0.109005   5.651135   0.103696  -0.003037
    29  C    0.014479  -0.259498   0.090644   0.103696   5.670447   0.003787
    30  C    0.002211  -0.004288   0.002938  -0.003037   0.003787   5.006138
    31  H    0.000063   0.000242  -0.000297   0.000405  -0.006724   0.414154
    32  H    0.000270  -0.005093   0.002882  -0.007147   0.009881   0.417998
    33  H   -0.000122   0.000348  -0.000035   0.000087  -0.000503   0.403326
    34  C    0.058001   0.041931  -0.018831   0.043504  -0.198600   0.000725
    35  H   -0.000371   0.000051  -0.000010   0.000012  -0.000528  -0.000092
    36  H    0.000432  -0.000017  -0.000094   0.001304   0.000543   0.000271
    37  H    0.000010  -0.003449   0.005931  -0.048576   0.437581  -0.000323
    38  H   -0.000147  -0.038269   0.431007  -0.049808   0.007989   0.000115
    39  H    0.014694   0.437699  -0.062293   0.017252  -0.008736  -0.000619
    40  N    0.000003   0.009046  -0.068315   0.460661  -0.068612  -0.000044
    41  O   -0.000000  -0.002201   0.024084  -0.182205   0.039035  -0.000097
    42  O   -0.000000  -0.004034   0.041985  -0.178996   0.023464   0.000015
              31         32         33         34         35         36
     1  C    0.000007   0.000043  -0.000203  -0.000056   0.000001  -0.000000
     2  C    0.000011  -0.000101   0.000384   0.000114  -0.000000   0.000000
     3  C    0.001133  -0.000623  -0.003340  -0.000626   0.000026  -0.000003
     4  C    0.011995  -0.007362  -0.006846  -0.000521  -0.000335  -0.000001
     5  C   -0.001460  -0.000181   0.001640  -0.003832   0.000717   0.000007
     6  C   -0.000015  -0.000116   0.000254   0.000339  -0.000011   0.000001
     7  H   -0.000000   0.000000   0.000000  -0.000000  -0.000000  -0.000000
     8  H   -0.000001  -0.000004   0.000000   0.000000   0.000000   0.000000
     9  H   -0.000001  -0.000000   0.000003   0.000003  -0.000002   0.000000
    10  H    0.000263  -0.000918  -0.002262   0.000006  -0.000000  -0.000000
    11  C    0.006057  -0.003135   0.000846  -0.000298   0.004146  -0.000052
    12  C   -0.012400   0.002599  -0.000338  -0.033003  -0.055083   0.010424
    13  N   -0.024096  -0.038813  -0.022688   0.019963   0.004565  -0.000119
    14  C   -0.000058   0.000048   0.000006   0.007363  -0.004079   0.000002
    15  H    0.000007  -0.000003  -0.000001  -0.000503  -0.000040  -0.000001
    16  H    0.000001   0.000000  -0.000001  -0.001312  -0.000099  -0.000007
    17  H    0.000001  -0.000001   0.000000   0.000172   0.000050   0.000001
    18  C    0.000101  -0.000049   0.000213   0.001679  -0.000692   0.000021
    19  H    0.000005   0.000027  -0.000034  -0.000523   0.000117  -0.000003
    20  H    0.000001  -0.000000  -0.000006   0.000080  -0.000075  -0.000001
    21  H   -0.000009   0.000000  -0.000003   0.000227   0.002354   0.000011
    22  C   -0.014172   0.009156  -0.002527   0.371139   0.431057  -0.049245
    23  C   -0.009977  -0.002079   0.000875   0.181458   0.007656  -0.051429
    24  C   -0.002492   0.002250   0.000449  -0.037120   0.000246   0.004758
    25  O    0.000063   0.000270  -0.000122   0.058001  -0.000371   0.000432
    26  C    0.000242  -0.005093   0.000348   0.041931   0.000051  -0.000017
    27  C   -0.000297   0.002882  -0.000035  -0.018831  -0.000010  -0.000094
    28  C    0.000405  -0.007147   0.000087   0.043504   0.000012   0.001304
    29  C   -0.006724   0.009881  -0.000503  -0.198600  -0.000528   0.000543
    30  C    0.414154   0.417998   0.403326   0.000725  -0.000092   0.000271
    31  H    0.472042  -0.020506  -0.011809   0.007381   0.000092   0.000166
    32  H   -0.020506   0.491777  -0.029086  -0.010463   0.000010  -0.000095
    33  H   -0.011809  -0.029086   0.483776   0.002509   0.000007   0.000015
    34  C    0.007381  -0.010463   0.002509   5.322519  -0.031503   0.440941
    35  H    0.000092   0.000010   0.000007  -0.031503   0.478987  -0.004616
    36  H    0.000166  -0.000095   0.000015   0.440941  -0.004616   0.476098
    37  H    0.000109   0.000235  -0.000010  -0.008604  -0.000007   0.001716
    38  H   -0.000006   0.000052  -0.000001   0.000099   0.000000  -0.000001
    39  H    0.000025  -0.000038  -0.000003  -0.001053  -0.000001   0.000005
    40  N    0.000017   0.000023  -0.000003  -0.000258  -0.000000  -0.000011
    41  O    0.000011   0.000082   0.000001  -0.001164   0.000000  -0.000050
    42  O    0.000001  -0.000002   0.000001  -0.000057   0.000000  -0.000001
              37         38         39         40         41         42
     1  C   -0.000000  -0.000000   0.000037  -0.000000  -0.000000   0.000000
     2  C    0.000000   0.000000  -0.000061   0.000000   0.000000  -0.000000
     3  C   -0.000001  -0.000014   0.000571   0.000000   0.000000   0.000000
     4  C    0.000002  -0.000002   0.000188   0.000002  -0.000001  -0.000000
     5  C    0.000002   0.000001   0.000091  -0.000000  -0.000000  -0.000000
     6  C    0.000000   0.000000  -0.000057  -0.000000   0.000000  -0.000000
     7  H    0.000000  -0.000000   0.000000  -0.000000  -0.000000   0.000000
     8  H    0.000000   0.000000  -0.000001   0.000000   0.000000  -0.000000
     9  H   -0.000000  -0.000000  -0.000000   0.000000   0.000000  -0.000000
    10  H   -0.000001   0.000000   0.000012  -0.000000  -0.000000   0.000000
    11  C   -0.000006  -0.000003   0.000399   0.000000  -0.000000   0.000000
    12  C    0.000184   0.000010  -0.000504  -0.000003  -0.000007  -0.000000
    13  N   -0.000078  -0.000021   0.000365   0.000008   0.000001  -0.000001
    14  C   -0.000001   0.000001  -0.000317   0.000000  -0.000000  -0.000000
    15  H   -0.000000  -0.000001   0.000366  -0.000000   0.000000   0.000000
    16  H    0.000000  -0.000000   0.000006   0.000000  -0.000000   0.000000
    17  H   -0.000000   0.000000  -0.000002   0.000000   0.000000   0.000000
    18  C    0.000000   0.000000  -0.000006   0.000000   0.000000  -0.000000
    19  H    0.000000   0.000000   0.000000   0.000000  -0.000000   0.000000
    20  H   -0.000000  -0.000000   0.000000  -0.000000  -0.000000  -0.000000
    21  H   -0.000000  -0.000000   0.000000  -0.000000  -0.000000  -0.000000
    22  C    0.000092  -0.000006   0.000042   0.000019   0.000016  -0.000000
    23  C   -0.040416  -0.006733   0.044372   0.009401  -0.004081  -0.002754
    24  C    0.006238   0.011824  -0.089927  -0.002190   0.001492   0.001251
    25  O    0.000010  -0.000147   0.014694   0.000003  -0.000000  -0.000000
    26  C   -0.003449  -0.038269   0.437699   0.009046  -0.002201  -0.004034
    27  C    0.005931   0.431007  -0.062293  -0.068315   0.024084   0.041985
    28  C   -0.048576  -0.049808   0.017252   0.460661  -0.182205  -0.178996
    29  C    0.437581   0.007989  -0.008736  -0.068612   0.039035   0.023464
    30  C   -0.000323   0.000115  -0.000619  -0.000044  -0.000097   0.000015
    31  H    0.000109  -0.000006   0.000025   0.000017   0.000011   0.000001
    32  H    0.000235   0.000052  -0.000038   0.000023   0.000082  -0.000002
    33  H   -0.000010  -0.000001  -0.000003  -0.000003   0.000001   0.000001
    34  C   -0.008604   0.000099  -0.001053  -0.000258  -0.001164  -0.000057
    35  H   -0.000007   0.000000  -0.000001  -0.000000   0.000000   0.000000
    36  H    0.001716  -0.000001   0.000005  -0.000011  -0.000050  -0.000001
    37  H    0.459536  -0.000196   0.000035  -0.007250   0.029386   0.001688
    38  H   -0.000196   0.464329  -0.008816  -0.006107   0.001381   0.026168
    39  H    0.000035  -0.008816   0.530279  -0.000103   0.000002  -0.000132
    40  N   -0.007250  -0.006107  -0.000103   5.440042   0.411072   0.408253
    41  O    0.029386   0.001381   0.000002   0.411072   8.190085  -0.132539
    42  O    0.001688   0.026168  -0.000132   0.408253  -0.132539   8.191414
 Mulliken charges:
               1
     1  C   -0.144426
     2  C   -0.132923
     3  C   -0.216530
     4  C    0.164718
     5  C   -0.072103
     6  C   -0.199259
     7  H    0.152200
     8  H    0.154106
     9  H    0.154643
    10  H    0.166940
    11  C    0.202792
    12  C    0.133877
    13  N    0.034351
    14  C   -0.391107
    15  H    0.153091
    16  H    0.138296
    17  H    0.141678
    18  C   -0.384253
    19  H    0.147680
    20  H    0.152683
    21  H    0.148661
    22  C   -0.216586
    23  C   -0.021862
    24  C    0.231231
    25  O   -0.459992
    26  C   -0.253204
    27  C   -0.168713
    28  C    0.055476
    29  C   -0.184171
    30  C   -0.359122
    31  H    0.189731
    32  H    0.188481
    33  H    0.185084
    34  C   -0.151826
    35  H    0.167450
    36  H    0.169031
    37  H    0.166173
    38  H    0.167155
    39  H    0.126227
    40  N    0.414348
    41  O   -0.374301
    42  O   -0.375724
 Sum of Mulliken charges =  -0.00000
 Mulliken charges with hydrogens summed into heavy atoms:
               1
     1  C    0.007774
     2  C    0.021183
     3  C   -0.049590
     4  C    0.164718
     5  C   -0.072103
     6  C   -0.044615
    11  C    0.202792
    12  C    0.133877
    13  N    0.034351
    14  C    0.041958
    18  C    0.064772
    22  C   -0.049137
    23  C   -0.021862
    24  C    0.231231
    25  O   -0.459992
    26  C   -0.126977
    27  C   -0.001558
    28  C    0.055476
    29  C   -0.017998
    30  C    0.204174
    34  C    0.017205
    40  N    0.414348
    41  O   -0.374301
    42  O   -0.375724
 Electronic spatial extent (au):  <R**2>=           7967.1334
 Charge=              0.0000 electrons
 Dipole moment (field-independent basis, Debye):
    X=             12.9922    Y=              1.7197    Z=             -5.2264  Tot=             14.1092
 Quadrupole moment (field-independent basis, Debye-Ang):
   XX=           -176.0992   YY=           -124.6793   ZZ=           -145.3906
   XY=             -7.0136   XZ=             -5.3569   YZ=             -4.9610
 Traceless Quadrupole moment (field-independent basis, Debye-Ang):
   XX=            -27.3762   YY=             24.0437   ZZ=              3.3324
   XY=             -7.0136   XZ=             -5.3569   YZ=             -4.9610
 Octapole moment (field-independent basis, Debye-Ang**2):
  XXX=            400.6698  YYY=              6.3019  ZZZ=            -31.6284  XYY=             30.2150
  XXY=             53.0036  XXZ=             56.5123  XZZ=             -8.7703  YZZ=            -11.5507
  YYZ=            -14.6982  XYZ=             -0.0916
 Hexadecapole moment (field-independent basis, Debye-Ang**3):
 XXXX=          -9194.1470 YYYY=          -1924.4443 ZZZZ=           -960.7633 XXXY=           -271.0860
 XXXZ=           -135.4570 YYYX=            -75.5308 YYYZ=            -15.4099 ZZZX=             14.2532
 ZZZY=            -12.6718 XXYY=          -1599.3986 XXZZ=          -1475.1333 YYZZ=           -523.5589
 XXYZ=            -30.5364 YYXZ=             11.1170 ZZXY=             39.5117
 N-N= 2.064475155073D+03 E-N=-6.621169392823D+03  KE= 1.065329527485D+03
 No NMR shielding tensors so no spin-rotation constants.
 Leave Link  601 at Sun Mar 10 15:33:19 2024, MaxMem=  2684354560 cpu:              25.0 elap:               1.3
 (Enter /s/ls4/groups/g0130/bin/g16/l9999.exe)
 Electronic transition elements 
                 1             2             3             4             5 
      1  -0.106976D+04 -0.106972D+04 -0.106970D+04 -0.106970D+04 -0.106967D+04
      2  -0.972505D+00 -0.604661D+00 -0.163297D+01  0.201962D+01 -0.123918D+00
      3   0.105734D+00  0.238915D+00 -0.920084D+00 -0.116437D+01  0.297718D-01
      4   0.162584D+01  0.882480D+00  0.908105D+00 -0.100681D+01  0.519243D-01
      5   0.646083D-01  0.671106D-01  0.202917D+00 -0.260748D+00  0.191962D-01
      6  -0.731273D-02 -0.267039D-01  0.113687D+00  0.150246D+00 -0.482148D-02
      7  -0.107790D+00 -0.991872D-01 -0.112037D+00  0.129540D+00 -0.809669D-02
      8  -0.605988D+00 -0.671185D+00 -0.776080D+00  0.541601D+00  0.558521D+00
      9   0.995077D+00  0.293107D+00 -0.130761D+00  0.717672D+00 -0.334712D+00
     10  -0.718412D+00 -0.244110D+00  0.152321D+00  0.399929D+00 -0.241092D+00
     11   0.154448D-01  0.191459D+00 -0.319728D+00 -0.172040D+01  0.569333D-01
     12  -0.937801D-01 -0.101701D+00  0.104262D+00 -0.105814D-01 -0.176066D-01
     13   0.918743D-01  0.247098D+00 -0.138316D+00 -0.857479D+00  0.990388D-01
     14  -0.119078D+00 -0.291393D+00  0.210706D-01  0.670197D+00 -0.870126D-01
     15  -0.460338D-01 -0.219236D+00  0.183444D+00  0.149224D+01 -0.413897D-01
     16   0.313608D-01  0.157418D+00  0.257243D+00 -0.692545D+00  0.907755D-01
 1\1\GINC-N054\FOpt\RCAM-B3LYP TD-FC\def2TZVP\C19H18N2O3\ARTD\10-Mar-20
 24\0\\#p CAM-B3LYP/def2TZVP EmpiricalDispersion=GD3BJ SCRF(PCM,Solvent
 =acetone) TD(Singlets,NStates=5, root=1) opt guess=(read) geom=(allche
 ck) gfinput\\TITLE\\0,1\C,-2.0514679494,2.011179208,0.0344235263\C,-1.
 0961523726,1.0850398711,-0.360347022\C,0.1946480658,1.4795493505,-0.68
 5789117\C,0.4846437414,2.8295028428,-0.6094170326\C,-0.457321995,3.767
 7917947,-0.2020069661\C,-1.7317505816,3.3633683405,0.1227429996\H,-3.0
 507972487,1.6785962153,0.2797195759\H,-1.3597115731,0.0376621226,-0.42
 02972847\H,-2.4760204653,4.0791643852,0.4474842342\H,0.9344492608,0.75
 68872724,-0.9995759209\C,0.1958578199,5.1278211804,-0.1409675671\C,1.5
 476866901,4.8200319654,-0.762770329\N,1.6950203854,3.466659378,-0.8892
 181529\C,-0.5836287926,6.2004758222,-0.8969232587\H,-0.7144824314,5.91
 82397446,-1.9381553465\H,-0.0551226205,7.1532763097,-0.8622458048\H,-1
 .5621112963,6.341618049,-0.4372010356\C,0.3901101663,5.5549242763,1.32
 6119886\H,0.9430450226,4.800526568,1.884893893\H,-0.5814286237,5.69283
 14167,1.8012440483\H,0.9339053515,6.4980045237,1.3808226401\C,2.492826
 8962,5.7836844354,-1.1246596395\C,3.3591848909,4.6880045834,-3.1625336
 562\C,2.0312361374,4.3096524643,-3.6769771816\O,1.0249771022,4.9923325
 428,-3.4175997087\C,1.9533799208,3.1537945216,-4.5248016042\C,3.073821
 0516,2.5462785675,-4.9981083217\C,4.3308648321,3.0385435495,-4.6047195
 907\C,4.481163444,4.0777792858,-3.7144941672\C,2.9407677402,2.71991090
 45,-0.8698232686\H,3.772956833,3.4084513152,-0.7866797397\H,3.06229609
 99,2.1212597078,-1.7710495165\H,2.9406424033,2.0552357787,-0.005007129
 4\C,3.4441347172,5.6550756335,-2.1208479577\H,2.4542270848,6.719439481
 ,-0.5771018082\H,4.3020116371,6.3170368092,-2.1118458792\H,5.471120198
 8,4.3778408522,-3.4059886729\H,3.0208409326,1.7109018998,-5.6781458805
 \H,0.9687412477,2.8410707659,-4.8426015504\N,5.5220058265,2.3998247219
 ,-5.1364013192\O,6.6088301431,2.8570966179,-4.8309605378\O,5.381030306
 8,1.4334449254,-5.8649588356\\Version=ES64L-G16RevA.03\State=1-A\HF=-1
 069.8279688\RMSD=3.599e-09\RMSF=4.417e-06\Dipole=-1.3161204,0.2296653,
 2.73561\PG=C01 [X(C19H18N2O3)]\\@


 ABSOLUTISM, OBSOLETISM -- IF IT WORKS, IT'S OUT OF DATE

                          -- STAFFORD BEER
 Job cpu time:      35 days 13 hours  0 minutes  4.7 seconds.
 Elapsed time:       1 days 11 hours 33 minutes  8.6 seconds.
 File lengths (MBytes):  RWF=   2622 Int=      0 D2E=      0 Chk=    181 Scr=      1
 Normal termination of Gaussian 16 at Sun Mar 10 15:33:21 2024.
