 Entering Gaussian System, Link 0=/s/ls4/groups/g0130/bin/g16/g16
 Input=mc1_gs_b3lyp.gjf
 Output=mc1_gs_b3lyp.log
 Initial command:
 /s/ls4/groups/g0130/bin/g16/l1.exe "/dev/shm/scratch_artd/Gau-13270.inp" -scrdir="/dev/shm/scratch_artd/"
 Entering Link 1 = /s/ls4/groups/g0130/bin/g16/l1.exe PID=     13271.
  
 Copyright (c) 1988,1990,1992,1993,1995,1998,2003,2009,2016,
            Gaussian, Inc.  All Rights Reserved.
  
 This is part of the Gaussian(R) 16 program.  It is based on
 the Gaussian(R) 09 system (copyright 2009, Gaussian, Inc.),
 the Gaussian(R) 03 system (copyright 2003, Gaussian, Inc.),
 the Gaussian(R) 98 system (copyright 1998, Gaussian, Inc.),
 the Gaussian(R) 94 system (copyright 1995, Gaussian, Inc.),
 the Gaussian 92(TM) system (copyright 1992, Gaussian, Inc.),
 the Gaussian 90(TM) system (copyright 1990, Gaussian, Inc.),
 the Gaussian 88(TM) system (copyright 1988, Gaussian, Inc.),
 the Gaussian 86(TM) system (copyright 1986, Carnegie Mellon
 University), and the Gaussian 82(TM) system (copyright 1983,
 Carnegie Mellon University). Gaussian is a federally registered
 trademark of Gaussian, Inc.
  
 This software contains proprietary and confidential information,
 including trade secrets, belonging to Gaussian, Inc.
  
 This software is provided under written license and may be
 used, copied, transmitted, or stored only in accord with that
 written license.
  
 The following legend is applicable only to US Government
 contracts under FAR:
  
                    RESTRICTED RIGHTS LEGEND
  
 Use, reproduction and disclosure by the US Government is
 subject to restrictions as set forth in subparagraphs (a)
 and (c) of the Commercial Computer Software - Restricted
 Rights clause in FAR 52.227-19.
  
 Gaussian, Inc.
 340 Quinnipiac St., Bldg. 40, Wallingford CT 06492
  
  
 ---------------------------------------------------------------
 Warning -- This program may not be used in any manner that
 competes with the business of Gaussian, Inc. or will provide
 assistance to any competitor of Gaussian, Inc.  The licensee
 of this program is prohibited from giving any competitor of
 Gaussian, Inc. access to this program.  By using this program,
 the user acknowledges that Gaussian, Inc. is engaged in the
 business of creating and licensing software in the field of
 computational chemistry and represents and warrants to the
 licensee that it is not a competitor of Gaussian, Inc. and that
 it will not use this program in any manner prohibited above.
 ---------------------------------------------------------------
  

 Cite this work as:
 Gaussian 16, Revision A.03,
 M. J. Frisch, G. W. Trucks, H. B. Schlegel, G. E. Scuseria, 
 M. A. Robb, J. R. Cheeseman, G. Scalmani, V. Barone, 
 G. A. Petersson, H. Nakatsuji, X. Li, M. Caricato, A. V. Marenich, 
 J. Bloino, B. G. Janesko, R. Gomperts, B. Mennucci, H. P. Hratchian, 
 J. V. Ortiz, A. F. Izmaylov, J. L. Sonnenberg, D. Williams-Young, 
 F. Ding, F. Lipparini, F. Egidi, J. Goings, B. Peng, A. Petrone, 
 T. Henderson, D. Ranasinghe, V. G. Zakrzewski, J. Gao, N. Rega, 
 G. Zheng, W. Liang, M. Hada, M. Ehara, K. Toyota, R. Fukuda, 
 J. Hasegawa, M. Ishida, T. Nakajima, Y. Honda, O. Kitao, H. Nakai, 
 T. Vreven, K. Throssell, J. A. Montgomery, Jr., J. E. Peralta, 
 F. Ogliaro, M. J. Bearpark, J. J. Heyd, E. N. Brothers, K. N. Kudin, 
 V. N. Staroverov, T. A. Keith, R. Kobayashi, J. Normand, 
 K. Raghavachari, A. P. Rendell, J. C. Burant, S. S. Iyengar, 
 J. Tomasi, M. Cossi, J. M. Millam, M. Klene, C. Adamo, R. Cammi, 
 J. W. Ochterski, R. L. Martin, K. Morokuma, O. Farkas, 
 J. B. Foresman, and D. J. Fox, Gaussian, Inc., Wallingford CT, 2016.
 
 ******************************************
 Gaussian 16:  ES64L-G16RevA.03 25-Dec-2016
                 8-Mar-2024 
 ******************************************
 %nprocs=24
 Will use up to   24 processors via shared memory.
 %mem=20GB
 %chk=mc1_gs_b3lyp.chk
 ----------------------------------------------------------------------
 #P CAM-B3LYP/def2TZVP opt freq=(noraman) scrf=(pcm,solvent=acetone) Em
 piricalDispersion=GD3BJ gfinput
 ----------------------------------------------------------------------
 1/18=20,19=15,26=3,38=1/1,3;
 2/9=110,12=2,17=6,18=5,40=1/2;
 3/5=44,7=101,11=2,24=10,25=1,30=1,70=2201,71=1,72=19,74=-40,124=41/1,2,3;
 4//1;
 5/5=2,38=5,53=19/2;
 6/7=2,8=2,9=2,10=2,28=1/1;
 7//1,2,3,16;
 1/18=20,19=15,26=3/3(2);
 2/9=110/2;
 99//99;
 2/9=110/2;
 3/5=44,7=101,11=2,25=1,30=1,70=2205,71=1,72=19,74=-40,124=41/1,2,3;
 4/5=5,16=3,69=1/1;
 5/5=2,38=5,53=19/2;
 7//1,2,3,16;
 1/18=20,19=15,26=3/3(-5);
 2/9=110/2;
 6/7=2,8=2,9=2,10=2,19=2,28=1/1;
 99/9=1/99;
 Leave Link    1 at Fri Mar  8 20:06:41 2024, MaxMem=  2684354560 cpu:               1.6 elap:               0.1
 (Enter /s/ls4/groups/g0130/bin/g16/l101.exe)
 -----
 TITLE
 -----
 Symbolic Z-matrix:
 Charge =  0 Multiplicity = 1
 6                    -2.72275   2.81916   0.9859 
 6                    -2.0745    1.57582   0.96729 
 6                    -0.72926   1.47035   0.58708 
 6                    -0.04153   2.61589   0.22256 
 6                    -0.70323   3.85601   0.25033 
 6                    -2.03472   3.9755    0.62812 
 1                    -3.76902   2.88065   1.27436 
 1                    -2.6269    0.68146   1.24451 
 1                    -2.53267   4.93916   0.63353 
 1                    -0.25385   0.49689   0.57043 
 6                     0.25527   4.93612  -0.21104 
 6                     1.51563   4.08691  -0.5979 
 7                     1.28181   2.76609  -0.21838 
 6                    -0.33038   5.68515  -1.42176 
 1                    -0.52077   5.00399  -2.26049 
 1                     0.34463   6.47008  -1.7807 
 1                    -1.27975   6.17211  -1.17302 
 6                     0.56616   5.90315   0.93957 
 1                     0.96988   5.37598   1.81252 
 1                    -0.33463   6.43494   1.26646 
 1                     1.30193   6.65829   0.64054 
 6                     2.52541   4.69202  -1.2396 
 6                     3.8208    3.78943  -3.1482 
 6                     2.66372   3.14931  -3.87931 
 8                     1.72101   2.58337  -3.34366 
 6                     2.74226   3.14728  -5.36267 
 6                     3.82088   3.62093  -6.00007 
 6                     4.97047   4.12319  -5.27523 
 6                     5.01298   4.13551  -3.92952 
 6                     2.11505   1.59967  -0.40397 
 1                     3.1507    1.86475  -0.63237 
 1                     1.73644   0.96635  -1.21299 
 1                     2.14886   0.9996    0.51354 
 6                     3.74008   4.25457  -1.883 
 1                     2.44965   5.77724  -1.33381 
 1                     4.61877   4.7202   -1.4343 
 1                     5.86328   4.54684  -3.38942 
 1                     3.84713   3.60978  -7.0868 
 1                     1.88764   2.73385  -5.88572 
 7                     6.08821   4.74626  -6.0015 
 8                     6.98945   5.28689  -5.34507 
 8                     6.04229   4.71907  -7.23901 
 
 ITRead=  0  0  0  0  0  0  0  0  0  0  0  0  0  0  0  0  0  0  0  0
 ITRead=  0  0  0  0  0  0  0  0  0  0  0  0  0  0  0  0  0  0  0  0
 ITRead=  0  0
 MicOpt= -1 -1 -1 -1 -1 -1 -1 -1 -1 -1 -1 -1 -1 -1 -1 -1 -1 -1 -1 -1
 MicOpt= -1 -1 -1 -1 -1 -1 -1 -1 -1 -1 -1 -1 -1 -1 -1 -1 -1 -1 -1 -1
 MicOpt= -1 -1
 NAtoms=     42 NQM=       42 NQMF=       0 NMMI=      0 NMMIF=      0
                NMic=       0 NMicF=      0.
                    Isotopes and Nuclear Properties:
 (Nuclear quadrupole moments (NQMom) in fm**2, nuclear magnetic moments (NMagM)
  in nuclear magnetons)

  Atom         1           2           3           4           5           6           7           8           9          10
 IAtWgt=          12          12          12          12          12          12           1           1           1           1
 AtmWgt=  12.0000000  12.0000000  12.0000000  12.0000000  12.0000000  12.0000000   1.0078250   1.0078250   1.0078250   1.0078250
 NucSpn=           0           0           0           0           0           0           1           1           1           1
 AtZEff=  -0.0000000  -0.0000000  -0.0000000  -0.0000000  -0.0000000  -0.0000000  -0.0000000  -0.0000000  -0.0000000  -0.0000000
 NQMom=    0.0000000   0.0000000   0.0000000   0.0000000   0.0000000   0.0000000   0.0000000   0.0000000   0.0000000   0.0000000
 NMagM=    0.0000000   0.0000000   0.0000000   0.0000000   0.0000000   0.0000000   2.7928460   2.7928460   2.7928460   2.7928460
 AtZNuc=   6.0000000   6.0000000   6.0000000   6.0000000   6.0000000   6.0000000   1.0000000   1.0000000   1.0000000   1.0000000

  Atom        11          12          13          14          15          16          17          18          19          20
 IAtWgt=          12          12          14          12           1           1           1          12           1           1
 AtmWgt=  12.0000000  12.0000000  14.0030740  12.0000000   1.0078250   1.0078250   1.0078250  12.0000000   1.0078250   1.0078250
 NucSpn=           0           0           2           0           1           1           1           0           1           1
 AtZEff=  -0.0000000  -0.0000000  -0.0000000  -0.0000000  -0.0000000  -0.0000000  -0.0000000  -0.0000000  -0.0000000  -0.0000000
 NQMom=    0.0000000   0.0000000   2.0440000   0.0000000   0.0000000   0.0000000   0.0000000   0.0000000   0.0000000   0.0000000
 NMagM=    0.0000000   0.0000000   0.4037610   0.0000000   2.7928460   2.7928460   2.7928460   0.0000000   2.7928460   2.7928460
 AtZNuc=   6.0000000   6.0000000   7.0000000   6.0000000   1.0000000   1.0000000   1.0000000   6.0000000   1.0000000   1.0000000

  Atom        21          22          23          24          25          26          27          28          29          30
 IAtWgt=           1          12          12          12          16          12          12          12          12          12
 AtmWgt=   1.0078250  12.0000000  12.0000000  12.0000000  15.9949146  12.0000000  12.0000000  12.0000000  12.0000000  12.0000000
 NucSpn=           1           0           0           0           0           0           0           0           0           0
 AtZEff=  -0.0000000  -0.0000000  -0.0000000  -0.0000000  -0.0000000  -0.0000000  -0.0000000  -0.0000000  -0.0000000  -0.0000000
 NQMom=    0.0000000   0.0000000   0.0000000   0.0000000   0.0000000   0.0000000   0.0000000   0.0000000   0.0000000   0.0000000
 NMagM=    2.7928460   0.0000000   0.0000000   0.0000000   0.0000000   0.0000000   0.0000000   0.0000000   0.0000000   0.0000000
 AtZNuc=   1.0000000   6.0000000   6.0000000   6.0000000   8.0000000   6.0000000   6.0000000   6.0000000   6.0000000   6.0000000

  Atom        31          32          33          34          35          36          37          38          39          40
 IAtWgt=           1           1           1          12           1           1           1           1           1          14
 AtmWgt=   1.0078250   1.0078250   1.0078250  12.0000000   1.0078250   1.0078250   1.0078250   1.0078250   1.0078250  14.0030740
 NucSpn=           1           1           1           0           1           1           1           1           1           2
 AtZEff=  -0.0000000  -0.0000000  -0.0000000  -0.0000000  -0.0000000  -0.0000000  -0.0000000  -0.0000000  -0.0000000  -0.0000000
 NQMom=    0.0000000   0.0000000   0.0000000   0.0000000   0.0000000   0.0000000   0.0000000   0.0000000   0.0000000   2.0440000
 NMagM=    2.7928460   2.7928460   2.7928460   0.0000000   2.7928460   2.7928460   2.7928460   2.7928460   2.7928460   0.4037610
 AtZNuc=   1.0000000   1.0000000   1.0000000   6.0000000   1.0000000   1.0000000   1.0000000   1.0000000   1.0000000   7.0000000

  Atom        41          42
 IAtWgt=          16          16
 AtmWgt=  15.9949146  15.9949146
 NucSpn=           0           0
 AtZEff=  -0.0000000  -0.0000000
 NQMom=    0.0000000   0.0000000
 NMagM=    0.0000000   0.0000000
 AtZNuc=   8.0000000   8.0000000
 Leave Link  101 at Fri Mar  8 20:06:41 2024, MaxMem=  2684354560 cpu:               8.2 elap:               0.4
 (Enter /s/ls4/groups/g0130/bin/g16/l103.exe)

 GradGradGradGradGradGradGradGradGradGradGradGradGradGradGradGradGradGrad
 Berny optimization.
 Initialization pass.
                           ----------------------------
                           !    Initial Parameters    !
                           ! (Angstroms and Degrees)  !
 --------------------------                            --------------------------
 ! Name  Definition              Value          Derivative Info.                !
 --------------------------------------------------------------------------------
 ! R1    R(1,2)                  1.4023         estimate D2E/DX2                !
 ! R2    R(1,6)                  1.3923         estimate D2E/DX2                !
 ! R3    R(1,7)                  1.087          estimate D2E/DX2                !
 ! R4    R(2,3)                  1.4019         estimate D2E/DX2                !
 ! R5    R(2,8)                  1.0871         estimate D2E/DX2                !
 ! R6    R(3,4)                  1.385          estimate D2E/DX2                !
 ! R7    R(3,10)                 1.0835         estimate D2E/DX2                !
 ! R8    R(4,5)                  1.4059         estimate D2E/DX2                !
 ! R9    R(4,13)                 1.4029         estimate D2E/DX2                !
 ! R10   R(5,6)                  1.3892         estimate D2E/DX2                !
 ! R11   R(5,11)                 1.516          estimate D2E/DX2                !
 ! R12   R(6,9)                  1.0847         estimate D2E/DX2                !
 ! R13   R(11,12)                1.5682         estimate D2E/DX2                !
 ! R14   R(11,14)                1.5394         estimate D2E/DX2                !
 ! R15   R(11,18)                1.5348         estimate D2E/DX2                !
 ! R16   R(12,13)                1.394          estimate D2E/DX2                !
 ! R17   R(12,22)                1.3407         estimate D2E/DX2                !
 ! R18   R(13,30)                1.4454         estimate D2E/DX2                !
 ! R19   R(14,15)                1.0971         estimate D2E/DX2                !
 ! R20   R(14,16)                1.0957         estimate D2E/DX2                !
 ! R21   R(14,17)                1.0956         estimate D2E/DX2                !
 ! R22   R(18,19)                1.0968         estimate D2E/DX2                !
 ! R23   R(18,20)                1.0959         estimate D2E/DX2                !
 ! R24   R(18,21)                1.0959         estimate D2E/DX2                !
 ! R25   R(22,34)                1.4425         estimate D2E/DX2                !
 ! R26   R(22,35)                1.0919         estimate D2E/DX2                !
 ! R27   R(23,24)                1.511          estimate D2E/DX2                !
 ! R28   R(23,29)                1.4668         estimate D2E/DX2                !
 ! R29   R(23,34)                1.3504         estimate D2E/DX2                !
 ! R30   R(24,25)                1.2231         estimate D2E/DX2                !
 ! R31   R(24,26)                1.4854         estimate D2E/DX2                !
 ! R32   R(26,27)                1.3394         estimate D2E/DX2                !
 ! R33   R(26,39)                1.0839         estimate D2E/DX2                !
 ! R34   R(27,28)                1.4489         estimate D2E/DX2                !
 ! R35   R(27,38)                1.0871         estimate D2E/DX2                !
 ! R36   R(28,29)                1.3464         estimate D2E/DX2                !
 ! R37   R(28,40)                1.4714         estimate D2E/DX2                !
 ! R38   R(29,37)                1.0881         estimate D2E/DX2                !
 ! R39   R(30,31)                1.0932         estimate D2E/DX2                !
 ! R40   R(30,32)                1.095          estimate D2E/DX2                !
 ! R41   R(30,33)                1.0968         estimate D2E/DX2                !
 ! R42   R(34,36)                1.091          estimate D2E/DX2                !
 ! R43   R(40,41)                1.2391         estimate D2E/DX2                !
 ! R44   R(40,42)                1.2387         estimate D2E/DX2                !
 ! A1    A(2,1,6)              120.2996         estimate D2E/DX2                !
 ! A2    A(2,1,7)              119.908          estimate D2E/DX2                !
 ! A3    A(6,1,7)              119.7911         estimate D2E/DX2                !
 ! A4    A(1,2,3)              120.9233         estimate D2E/DX2                !
 ! A5    A(1,2,8)              119.4153         estimate D2E/DX2                !
 ! A6    A(3,2,8)              119.6597         estimate D2E/DX2                !
 ! A7    A(2,3,4)              119.0552         estimate D2E/DX2                !
 ! A8    A(2,3,10)             119.5253         estimate D2E/DX2                !
 ! A9    A(4,3,10)             121.4136         estimate D2E/DX2                !
 ! A10   A(3,4,5)              119.3857         estimate D2E/DX2                !
 ! A11   A(3,4,13)             129.7677         estimate D2E/DX2                !
 ! A12   A(5,4,13)             110.8383         estimate D2E/DX2                !
 ! A13   A(4,5,6)              122.1648         estimate D2E/DX2                !
 ! A14   A(4,5,11)             108.9582         estimate D2E/DX2                !
 ! A15   A(6,5,11)             128.8642         estimate D2E/DX2                !
 ! A16   A(1,6,5)              118.1697         estimate D2E/DX2                !
 ! A17   A(1,6,9)              120.6437         estimate D2E/DX2                !
 ! A18   A(5,6,9)              121.182          estimate D2E/DX2                !
 ! A19   A(5,11,12)            101.385          estimate D2E/DX2                !
 ! A20   A(5,11,14)            110.2113         estimate D2E/DX2                !
 ! A21   A(5,11,18)            110.4152         estimate D2E/DX2                !
 ! A22   A(12,11,14)           112.0375         estimate D2E/DX2                !
 ! A23   A(12,11,18)           111.3044         estimate D2E/DX2                !
 ! A24   A(14,11,18)           111.1055         estimate D2E/DX2                !
 ! A25   A(11,12,13)           108.1264         estimate D2E/DX2                !
 ! A26   A(11,12,22)           118.618          estimate D2E/DX2                !
 ! A27   A(13,12,22)           133.1772         estimate D2E/DX2                !
 ! A28   A(4,13,12)            110.1955         estimate D2E/DX2                !
 ! A29   A(4,13,30)            119.8493         estimate D2E/DX2                !
 ! A30   A(12,13,30)           129.2683         estimate D2E/DX2                !
 ! A31   A(11,14,15)           111.418          estimate D2E/DX2                !
 ! A32   A(11,14,16)           111.8283         estimate D2E/DX2                !
 ! A33   A(11,14,17)           111.5532         estimate D2E/DX2                !
 ! A34   A(15,14,16)           107.5316         estimate D2E/DX2                !
 ! A35   A(15,14,17)           107.4063         estimate D2E/DX2                !
 ! A36   A(16,14,17)           106.8459         estimate D2E/DX2                !
 ! A37   A(11,18,19)           111.6166         estimate D2E/DX2                !
 ! A38   A(11,18,20)           111.275          estimate D2E/DX2                !
 ! A39   A(11,18,21)           111.4434         estimate D2E/DX2                !
 ! A40   A(19,18,20)           107.3601         estimate D2E/DX2                !
 ! A41   A(19,18,21)           107.532          estimate D2E/DX2                !
 ! A42   A(20,18,21)           107.3893         estimate D2E/DX2                !
 ! A43   A(12,22,34)           135.3013         estimate D2E/DX2                !
 ! A44   A(12,22,35)           115.9502         estimate D2E/DX2                !
 ! A45   A(34,22,35)           108.7439         estimate D2E/DX2                !
 ! A46   A(24,23,29)           117.6854         estimate D2E/DX2                !
 ! A47   A(24,23,34)           123.6058         estimate D2E/DX2                !
 ! A48   A(29,23,34)           117.799          estimate D2E/DX2                !
 ! A49   A(23,24,25)           125.0544         estimate D2E/DX2                !
 ! A50   A(23,24,26)           116.3129         estimate D2E/DX2                !
 ! A51   A(25,24,26)           118.5197         estimate D2E/DX2                !
 ! A52   A(24,26,27)           121.1518         estimate D2E/DX2                !
 ! A53   A(24,26,39)           116.1493         estimate D2E/DX2                !
 ! A54   A(27,26,39)           122.6956         estimate D2E/DX2                !
 ! A55   A(26,27,28)           121.5648         estimate D2E/DX2                !
 ! A56   A(26,27,38)           119.4413         estimate D2E/DX2                !
 ! A57   A(28,27,38)           118.98           estimate D2E/DX2                !
 ! A58   A(27,28,29)           121.8861         estimate D2E/DX2                !
 ! A59   A(27,28,40)           120.1715         estimate D2E/DX2                !
 ! A60   A(29,28,40)           117.7403         estimate D2E/DX2                !
 ! A61   A(23,29,28)           120.3021         estimate D2E/DX2                !
 ! A62   A(23,29,37)           117.3836         estimate D2E/DX2                !
 ! A63   A(28,29,37)           121.6174         estimate D2E/DX2                !
 ! A64   A(13,30,31)           112.1654         estimate D2E/DX2                !
 ! A65   A(13,30,32)           111.2407         estimate D2E/DX2                !
 ! A66   A(13,30,33)           110.6006         estimate D2E/DX2                !
 ! A67   A(31,30,32)           108.268          estimate D2E/DX2                !
 ! A68   A(31,30,33)           106.1549         estimate D2E/DX2                !
 ! A69   A(32,30,33)           108.1967         estimate D2E/DX2                !
 ! A70   A(22,34,23)           124.9376         estimate D2E/DX2                !
 ! A71   A(22,34,36)           111.4282         estimate D2E/DX2                !
 ! A72   A(23,34,36)           118.9598         estimate D2E/DX2                !
 ! A73   A(28,40,41)           118.4099         estimate D2E/DX2                !
 ! A74   A(28,40,42)           117.1084         estimate D2E/DX2                !
 ! A75   A(41,40,42)           124.4582         estimate D2E/DX2                !
 ! D1    D(6,1,2,3)             -0.1696         estimate D2E/DX2                !
 ! D2    D(6,1,2,8)           -179.6898         estimate D2E/DX2                !
 ! D3    D(7,1,2,3)            179.4166         estimate D2E/DX2                !
 ! D4    D(7,1,2,8)             -0.1036         estimate D2E/DX2                !
 ! D5    D(2,1,6,5)              0.322          estimate D2E/DX2                !
 ! D6    D(2,1,6,9)            179.5492         estimate D2E/DX2                !
 ! D7    D(7,1,6,5)           -179.2647         estimate D2E/DX2                !
 ! D8    D(7,1,6,9)             -0.0375         estimate D2E/DX2                !
 ! D9    D(1,2,3,4)             -0.2061         estimate D2E/DX2                !
 ! D10   D(1,2,3,10)          -179.3347         estimate D2E/DX2                !
 ! D11   D(8,2,3,4)            179.3129         estimate D2E/DX2                !
 ! D12   D(8,2,3,10)             0.1844         estimate D2E/DX2                !
 ! D13   D(2,3,4,5)              0.4137         estimate D2E/DX2                !
 ! D14   D(2,3,4,13)          -178.4392         estimate D2E/DX2                !
 ! D15   D(10,3,4,5)           179.5252         estimate D2E/DX2                !
 ! D16   D(10,3,4,13)            0.6723         estimate D2E/DX2                !
 ! D17   D(3,4,5,6)             -0.2626         estimate D2E/DX2                !
 ! D18   D(3,4,5,11)          -179.0688         estimate D2E/DX2                !
 ! D19   D(13,4,5,6)           178.794          estimate D2E/DX2                !
 ! D20   D(13,4,5,11)           -0.0123         estimate D2E/DX2                !
 ! D21   D(3,4,13,12)          174.2955         estimate D2E/DX2                !
 ! D22   D(3,4,13,30)            2.9347         estimate D2E/DX2                !
 ! D23   D(5,4,13,12)           -4.635          estimate D2E/DX2                !
 ! D24   D(5,4,13,30)         -175.9958         estimate D2E/DX2                !
 ! D25   D(4,5,6,1)             -0.1099         estimate D2E/DX2                !
 ! D26   D(4,5,6,9)           -179.3328         estimate D2E/DX2                !
 ! D27   D(11,5,6,1)           178.4401         estimate D2E/DX2                !
 ! D28   D(11,5,6,9)            -0.7828         estimate D2E/DX2                !
 ! D29   D(4,5,11,12)            3.961          estimate D2E/DX2                !
 ! D30   D(4,5,11,14)          122.7765         estimate D2E/DX2                !
 ! D31   D(4,5,11,18)         -114.0993         estimate D2E/DX2                !
 ! D32   D(6,5,11,12)         -174.7411         estimate D2E/DX2                !
 ! D33   D(6,5,11,14)          -55.9257         estimate D2E/DX2                !
 ! D34   D(6,5,11,18)           67.1985         estimate D2E/DX2                !
 ! D35   D(5,11,12,13)          -6.6576         estimate D2E/DX2                !
 ! D36   D(5,11,12,22)         170.5403         estimate D2E/DX2                !
 ! D37   D(14,11,12,13)       -124.1548         estimate D2E/DX2                !
 ! D38   D(14,11,12,22)         53.0432         estimate D2E/DX2                !
 ! D39   D(18,11,12,13)        110.7583         estimate D2E/DX2                !
 ! D40   D(18,11,12,22)        -72.0438         estimate D2E/DX2                !
 ! D41   D(5,11,14,15)         -59.3344         estimate D2E/DX2                !
 ! D42   D(5,11,14,16)        -179.7114         estimate D2E/DX2                !
 ! D43   D(5,11,14,17)          60.6941         estimate D2E/DX2                !
 ! D44   D(12,11,14,15)         52.749          estimate D2E/DX2                !
 ! D45   D(12,11,14,16)        -67.628          estimate D2E/DX2                !
 ! D46   D(12,11,14,17)        172.7775         estimate D2E/DX2                !
 ! D47   D(18,11,14,15)        177.9455         estimate D2E/DX2                !
 ! D48   D(18,11,14,16)         57.5685         estimate D2E/DX2                !
 ! D49   D(18,11,14,17)        -62.026          estimate D2E/DX2                !
 ! D50   D(5,11,18,19)          56.5346         estimate D2E/DX2                !
 ! D51   D(5,11,18,20)         -63.3808         estimate D2E/DX2                !
 ! D52   D(5,11,18,21)         176.7839         estimate D2E/DX2                !
 ! D53   D(12,11,18,19)        -55.2567         estimate D2E/DX2                !
 ! D54   D(12,11,18,20)       -175.172          estimate D2E/DX2                !
 ! D55   D(12,11,18,21)         64.9927         estimate D2E/DX2                !
 ! D56   D(14,11,18,19)        179.1369         estimate D2E/DX2                !
 ! D57   D(14,11,18,20)         59.2215         estimate D2E/DX2                !
 ! D58   D(14,11,18,21)        -60.6138         estimate D2E/DX2                !
 ! D59   D(11,12,13,4)           7.1262         estimate D2E/DX2                !
 ! D60   D(11,12,13,30)        177.4381         estimate D2E/DX2                !
 ! D61   D(22,12,13,4)        -169.5002         estimate D2E/DX2                !
 ! D62   D(22,12,13,30)          0.8118         estimate D2E/DX2                !
 ! D63   D(11,12,22,34)       -171.43           estimate D2E/DX2                !
 ! D64   D(11,12,22,35)          7.6776         estimate D2E/DX2                !
 ! D65   D(13,12,22,34)          4.9172         estimate D2E/DX2                !
 ! D66   D(13,12,22,35)       -175.9752         estimate D2E/DX2                !
 ! D67   D(4,13,30,31)        -173.14           estimate D2E/DX2                !
 ! D68   D(4,13,30,32)          65.4274         estimate D2E/DX2                !
 ! D69   D(4,13,30,33)         -54.8397         estimate D2E/DX2                !
 ! D70   D(12,13,30,31)         17.3518         estimate D2E/DX2                !
 ! D71   D(12,13,30,32)       -104.0808         estimate D2E/DX2                !
 ! D72   D(12,13,30,33)        135.6521         estimate D2E/DX2                !
 ! D73   D(12,22,34,23)         83.1178         estimate D2E/DX2                !
 ! D74   D(12,22,34,36)       -121.5595         estimate D2E/DX2                !
 ! D75   D(35,22,34,23)        -96.0348         estimate D2E/DX2                !
 ! D76   D(35,22,34,36)         59.2879         estimate D2E/DX2                !
 ! D77   D(29,23,24,25)        165.5846         estimate D2E/DX2                !
 ! D78   D(29,23,24,26)        -10.4782         estimate D2E/DX2                !
 ! D79   D(34,23,24,25)        -25.5917         estimate D2E/DX2                !
 ! D80   D(34,23,24,26)        158.3455         estimate D2E/DX2                !
 ! D81   D(24,23,29,28)         12.6137         estimate D2E/DX2                !
 ! D82   D(24,23,29,37)       -176.7978         estimate D2E/DX2                !
 ! D83   D(34,23,29,28)       -156.8712         estimate D2E/DX2                !
 ! D84   D(34,23,29,37)         13.7173         estimate D2E/DX2                !
 ! D85   D(24,23,34,22)        -25.254          estimate D2E/DX2                !
 ! D86   D(24,23,34,36)       -178.8825         estimate D2E/DX2                !
 ! D87   D(29,23,34,22)        143.558          estimate D2E/DX2                !
 ! D88   D(29,23,34,36)        -10.0706         estimate D2E/DX2                !
 ! D89   D(23,24,26,27)          3.7014         estimate D2E/DX2                !
 ! D90   D(23,24,26,39)       -176.9427         estimate D2E/DX2                !
 ! D91   D(25,24,26,27)       -172.6308         estimate D2E/DX2                !
 ! D92   D(25,24,26,39)          6.7251         estimate D2E/DX2                !
 ! D93   D(24,26,27,28)          1.6158         estimate D2E/DX2                !
 ! D94   D(24,26,27,38)       -179.7495         estimate D2E/DX2                !
 ! D95   D(39,26,27,28)       -177.6972         estimate D2E/DX2                !
 ! D96   D(39,26,27,38)          0.9376         estimate D2E/DX2                !
 ! D97   D(26,27,28,29)          0.1769         estimate D2E/DX2                !
 ! D98   D(26,27,28,40)       -174.5408         estimate D2E/DX2                !
 ! D99   D(38,27,28,29)       -178.464          estimate D2E/DX2                !
 ! D100  D(38,27,28,40)          6.8183         estimate D2E/DX2                !
 ! D101  D(27,28,29,23)         -7.5613         estimate D2E/DX2                !
 ! D102  D(27,28,29,37)       -177.7439         estimate D2E/DX2                !
 ! D103  D(40,28,29,23)        167.2793         estimate D2E/DX2                !
 ! D104  D(40,28,29,37)         -2.9032         estimate D2E/DX2                !
 ! D105  D(27,28,40,41)        172.6987         estimate D2E/DX2                !
 ! D106  D(27,28,40,42)         -5.6171         estimate D2E/DX2                !
 ! D107  D(29,28,40,41)         -2.2342         estimate D2E/DX2                !
 ! D108  D(29,28,40,42)        179.4499         estimate D2E/DX2                !
 --------------------------------------------------------------------------------
 Trust Radius=3.00D-01 FncErr=1.00D-07 GrdErr=1.00D-06 EigMax=2.50D+02 EigMin=1.00D-04
 Number of steps in this run=    237 maximum allowed number of steps=    252.
 GradGradGradGradGradGradGradGradGradGradGradGradGradGradGradGradGradGrad

 Leave Link  103 at Fri Mar  8 20:06:41 2024, MaxMem=  2684354560 cpu:               0.5 elap:               0.0
 (Enter /s/ls4/groups/g0130/bin/g16/l202.exe)
                          Input orientation:                          
 ---------------------------------------------------------------------
 Center     Atomic      Atomic             Coordinates (Angstroms)
 Number     Number       Type             X           Y           Z
 ---------------------------------------------------------------------
      1          6           0       -2.722750    2.819160    0.985900
      2          6           0       -2.074500    1.575820    0.967290
      3          6           0       -0.729260    1.470350    0.587080
      4          6           0       -0.041530    2.615890    0.222560
      5          6           0       -0.703230    3.856010    0.250330
      6          6           0       -2.034720    3.975500    0.628120
      7          1           0       -3.769020    2.880650    1.274360
      8          1           0       -2.626900    0.681460    1.244510
      9          1           0       -2.532670    4.939160    0.633530
     10          1           0       -0.253850    0.496890    0.570430
     11          6           0        0.255270    4.936120   -0.211040
     12          6           0        1.515630    4.086910   -0.597900
     13          7           0        1.281810    2.766090   -0.218380
     14          6           0       -0.330380    5.685150   -1.421760
     15          1           0       -0.520770    5.003990   -2.260490
     16          1           0        0.344630    6.470080   -1.780700
     17          1           0       -1.279750    6.172110   -1.173020
     18          6           0        0.566160    5.903150    0.939570
     19          1           0        0.969880    5.375980    1.812520
     20          1           0       -0.334630    6.434940    1.266460
     21          1           0        1.301930    6.658290    0.640540
     22          6           0        2.525410    4.692020   -1.239600
     23          6           0        3.820800    3.789430   -3.148200
     24          6           0        2.663720    3.149310   -3.879310
     25          8           0        1.721010    2.583370   -3.343660
     26          6           0        2.742260    3.147280   -5.362670
     27          6           0        3.820880    3.620930   -6.000070
     28          6           0        4.970470    4.123190   -5.275230
     29          6           0        5.012980    4.135510   -3.929520
     30          6           0        2.115050    1.599670   -0.403970
     31          1           0        3.150700    1.864750   -0.632370
     32          1           0        1.736440    0.966350   -1.212990
     33          1           0        2.148860    0.999600    0.513540
     34          6           0        3.740080    4.254570   -1.883000
     35          1           0        2.449650    5.777240   -1.333810
     36          1           0        4.618770    4.720200   -1.434300
     37          1           0        5.863280    4.546840   -3.389420
     38          1           0        3.847130    3.609780   -7.086800
     39          1           0        1.887640    2.733850   -5.885720
     40          7           0        6.088210    4.746260   -6.001500
     41          8           0        6.989450    5.286890   -5.345070
     42          8           0        6.042290    4.719070   -7.239010
 ---------------------------------------------------------------------
                    Distance matrix (angstroms):
                    1          2          3          4          5
     1  C    0.000000
     2  C    1.402308   0.000000
     3  C    2.439743   1.401911   0.000000
     4  C    2.795165   2.401944   1.384958   0.000000
     5  C    2.386332   2.755663   2.409451   1.405886   0.000000
     6  C    1.392305   2.423857   2.825188   2.446594   1.389197
     7  H    1.087047   2.160618   3.420737   3.882082   3.376245
     8  H    2.155418   1.087141   2.157684   3.386818   3.842742
     9  H    2.157474   3.410773   3.909871   3.431072   2.160302
    10  H    3.414824   2.153220   1.083474   2.157836   3.404129
    11  C    3.844839   4.255339   3.690238   2.378984   1.515989
    12  C    4.698880   4.652357   3.645558   2.293862   2.386661
    13  N    4.182058   3.753315   2.524304   1.402932   2.312574
    14  C    4.442315   5.063211   4.686052   3.493935   2.506124
    15  H    4.490128   4.958325   4.542987   3.478251   2.766833
    16  H    5.512904   6.112072   5.635328   4.360843   3.472241
    17  H    4.240927   5.132099   5.050499   4.015910   2.778960
    18  C    4.508888   5.069481   4.631639   3.418987   2.505431
    19  H    4.566853   4.942052   4.432011   3.342008   2.747734
    20  H    4.342315   5.169884   5.026375   3.969985   2.796295
    21  H    5.572813   6.110528   5.571653   4.280256   3.467810
    22  C    6.000303   5.978314   4.930395   3.610735   3.652796
    23  C    7.800657   7.522758   6.327203   5.258974   5.658735
    24  C    7.265902   6.958170   5.854900   4.942495   5.374914
    25  O    6.208679   5.831410   4.763754   3.978131   4.518110
    26  C    8.383218   8.107963   7.089645   6.263119   6.624158
    27  C    9.605504   9.353186   8.289711   7.392526   7.719478
    28  C   10.004393   9.751397   8.595997   7.590638   7.924271
    29  C    9.259355   8.986831   7.776636   6.715436   7.086912
    30  C    5.179112   4.408316   3.014797   2.464971   3.669044
    31  H    6.166613   5.472212   4.086159   3.389019   4.426856
    32  H    5.305883   4.432645   3.094179   2.818326   4.055050
    33  H    5.221734   4.286571   2.917291   2.737676   4.045093
    34  C    7.215203   7.007795   5.816199   4.628091   4.944992
    35  H    6.394139   6.589000   5.687230   4.315368   4.017621
    36  H    7.960480   7.775257   6.576392   5.375100   5.648760
    37  H    9.790210   9.529755   8.290894   7.186219   7.539501
    38  H   10.438242  10.201522   9.187434   8.338839   8.637122
    39  H    8.275393   8.000208   7.095191   6.406770   6.754477
    40  N   11.409228  11.191316  10.030896   8.991725   9.273704
    41  O   11.853173  11.652172  10.456331   9.357747   9.619420
    42  O   12.169007  11.962678  10.846924   9.854504  10.116181
                    6          7          8          9         10
     6  C    0.000000
     7  H    2.150377   0.000000
     8  H    3.403133   2.478259   0.000000
     9  H    1.084723   2.485294   4.302346   0.000000
    10  H    3.908395   4.305142   2.473826   4.993072   0.000000
    11  C    2.621266   4.756709   5.341129   2.913060   4.536151
    12  C    3.757728   5.734801   5.670284   4.316420   4.169448
    13  N    3.630235   5.268043   4.665163   4.471939   2.851270
    14  C    3.166968   5.192160   6.117182   3.103353   5.558122
    15  H    3.419635   5.249273   5.950216   3.525237   5.329100
    16  H    4.205550   6.256158   7.175654   4.055993   6.447092
    17  H    2.939248   4.797900   6.148699   2.520634   6.024966
    18  C    3.252293   5.295411   6.128186   3.259706   5.480541
    19  H    3.520194   5.382700   5.941210   3.721382   5.181295
    20  H    3.057226   4.942477   6.193344   2.733009   5.979249
    21  H    4.281442   6.355063   7.177951   4.202334   6.355172
    22  C    4.979615   7.015761   6.985821   5.399432   5.347860
    23  C    6.970103   8.831211   8.398108   7.482643   6.424313
    24  C    6.563144   8.246977   7.767527   7.111382   5.945396
    25  O    5.640795   7.180175   6.600976   6.281845   4.855262
    26  C    7.706818   9.301507   8.863576   8.184750   7.155621
    27  C    8.851366  10.539067  10.134016   9.279546   8.338736
    28  C    9.162098  10.991802  10.586432   9.585216   8.638016
    29  C    8.394508  10.284871   9.852351   8.854610   7.824871
    30  C    4.891868   6.251398   5.103595   5.816348   2.788775
    31  H    5.738700   7.249151   6.188983   6.584466   3.861182
    32  H    5.163944   6.337314   5.015895   6.117038   2.713344
    33  H    5.135314   6.256077   4.841840   6.119743   2.455396
    34  C    6.303326   8.260942   7.942724   6.793304   6.007575
    35  H    5.215842   7.339253   7.641078   5.421837   6.230340
    36  H    7.005504   9.004210   8.717062   7.447614   6.752608
    37  H    8.879497  10.830893  10.416219   9.318263   8.336773
    38  H    9.708239  11.333418  10.949833  10.103098   9.227204
    39  H    7.704331   9.126122   8.685249   8.179435   7.160436
    40  N   10.513226  12.392886  12.040781  10.880276  10.073189
    41  O   10.901119  12.858908  12.534223  11.248793  10.507266
    42  O   11.299678  13.119415  12.783867  11.642820  10.883728
                   11         12         13         14         15
    11  C    0.000000
    12  C    1.568224   0.000000
    13  N    2.400598   1.394013   0.000000
    14  C    1.539440   2.576988   3.545164   0.000000
    15  H    2.192508   2.784271   3.525295   1.097130   0.000000
    16  H    2.196554   2.906846   4.127795   1.095715   1.768767
    17  H    2.193026   3.534540   4.367368   1.095584   1.767242
    18  C    1.534830   2.562037   3.419671   2.535190   3.497183
    19  H    2.190648   2.787413   3.321653   3.499547   4.353140
    20  H    2.185738   3.523144   4.275288   2.790830   3.810727
    21  H    2.187820   2.862062   3.985896   2.804375   3.804592
    22  C    2.504208   1.340743   2.509709   3.029031   3.227810
    23  C    4.759707   3.450555   4.009681   4.879205   4.594825
    24  C    4.738093   3.600674   3.931786   4.629759   4.025095
    25  O    4.182958   3.137198   3.161275   4.186041   3.472497
    26  C    5.993693   5.009048   5.361151   5.604701   4.870139
    27  C    6.925039   5.891923   6.372250   6.515741   5.894679
    28  C    6.967064   5.815037   6.404660   6.737059   6.325993
    29  C    6.091295   4.830477   5.437785   6.102601   5.844853
    30  C    3.824644   2.565790   1.445430   4.869001   4.688668
    31  H    4.241974   2.759101   2.115786   5.228433   5.097577
    32  H    4.353946   3.188258   2.105944   5.155813   4.742867
    33  H    4.427967   3.341820   2.099516   5.643261   5.554935
    34  C    3.924775   2.574446   3.321088   4.339118   4.342692
    35  H    2.604496   2.066681   3.416878   2.782945   3.206251
    36  H    4.536862   3.275683   4.053678   5.042358   5.213252
    37  H    6.457818   5.187117   5.849481   6.597640   6.499197
    38  H    7.869988   6.911539   7.380235   7.338353   6.656999
    39  H    6.302112   5.470850   5.699720   5.792817   4.908795
    40  N    8.221232   7.109298   7.776055   7.940644   7.598697
    41  O    8.475287   7.344269   8.075552   8.314498   8.123920
    42  O    9.106540   8.061924   8.704341   8.682432   8.242609
                   16         17         18         19         20
    16  H    0.000000
    17  H    1.759736   0.000000
    18  C    2.787535   2.818290   0.000000
    19  H    3.807784   3.822055   1.096786   0.000000
    20  H    3.122149   2.629333   1.095938   1.766727   0.000000
    21  H    2.610412   3.192247   1.095907   1.768647   1.766349
    22  C    2.865325   4.083423   3.170848   3.493267   4.183053
    23  C    4.597793   5.966080   5.636520   5.937477   6.614797
    24  C    4.561782   5.657940   5.933380   6.342246   6.801795
    25  O    4.409510   5.157062   5.540819   5.911773   6.349288
    26  C    5.442439   6.548231   7.214462   7.719572   8.013821
    27  C    6.164824   7.471637   7.997520   8.499704   8.831159
    28  C    6.254441   7.751868   7.822400   8.234707   8.733956
    29  C    5.644567   7.165506   6.826917   7.131371   7.802725
    30  C    5.361965   5.746591   4.766980   4.526009   5.671958
    31  H    5.513779   6.202785   5.045742   4.802312   6.053075
    32  H    5.705302   6.016555   5.511358   5.402422   6.351573
    33  H    6.200398   6.430763   5.170227   4.714875   6.023083
    34  C    4.055617   5.420307   4.556148   4.752729   5.592528
    35  H    2.260718   3.753692   2.954936   3.500017   3.866030
    36  H    4.631452   6.080201   4.843375   4.928112   5.896661
    37  H    6.061545   7.653549   6.974182   7.189786   7.978485
    38  H    6.971622   8.235486   8.969221   9.518189   9.759385
    39  H    5.761205   6.638037   7.640377   8.190606   8.354055
    40  N    7.333173   8.923794   8.944824   9.362305   9.845190
    41  O    7.632713   9.304262   9.007504   9.352767   9.933403
    42  O    8.082234   9.618723   9.913587  10.396685  10.768117
                   21         22         23         24         25
    21  H    0.000000
    22  C    2.982960   0.000000
    23  C    5.378626   2.476986   0.000000
    24  C    5.881875   3.060580   1.510996   0.000000
    25  O    5.714407   3.085536   2.429383   1.223074   0.000000
    26  C    7.102132   4.408282   2.545483   1.485439   2.331812
    27  C    7.724530   5.048520   2.856843   2.461517   3.541539
    28  C    7.408188   4.752704   2.440777   2.866728   4.081789
    29  C    6.404823   3.705857   1.466808   2.548359   3.686385
    30  C    5.228939   3.229443   3.903259   3.844530   3.124854
    31  H    5.293040   2.958576   3.237720   3.525601   3.148257
    32  H    6.001879   3.808385   4.007415   3.568533   2.674836
    33  H    5.723128   4.104784   4.897640   4.917669   4.191584
    34  C    4.253316   1.442480   1.350408   2.522975   3.000513
    35  H    2.447768   1.091933   3.020505   3.664889   3.843334
    36  H    4.366072   2.102584   2.107259   3.502569   4.075379
    37  H    6.442415   3.972931   2.191707   3.525658   4.584289
    38  H    8.688109   6.091628   3.942783   3.449708   4.425494
    39  H    7.637824   5.082087   3.513598   2.191024   2.551956
    40  N    8.407201   5.947451   3.768022   4.333713   5.551094
    41  O    8.369955   6.093965   4.136299   5.042781   6.250690
    42  O    9.397813   6.954286   4.746996   5.016619   6.197453
                   26         27         28         29         30
    26  C    0.000000
    27  C    1.339419   0.000000
    28  C    2.434125   1.448867   0.000000
    29  C    2.861239   2.443987   1.346438   0.000000
    30  C    5.232322   6.189643   6.184719   5.220918   0.000000
    31  H    4.918073   5.687312   5.474328   4.415386   1.093163
    32  H    4.794578   5.857288   6.076708   5.306489   1.094967
    33  H    6.284465   7.217627   7.157385   6.146373   1.096837
    34  C    3.785477   4.166329   3.610865   2.413026   3.446266
    35  H    4.820168   5.320144   4.962379   4.000456   4.292860
    36  H    4.628980   4.763536   3.902929   2.592949   4.131332
    37  H    3.948829   3.441540   2.129053   1.088076   5.625651
    38  H    2.099349   1.087104   2.192548   3.406467   7.190331
    39  H    1.083919   2.130118   3.436103   3.944505   5.602469
    40  N    3.763007   2.531236   1.471403   2.412931   7.551117
    41  O    4.755719   3.639270   2.331385   2.689961   7.859379
    42  O    4.108695   2.770478   2.315233   3.514647   8.477714
                   31         32         33         34         35
    31  H    0.000000
    32  H    1.773238   0.000000
    33  H    1.750793   1.775416   0.000000
    34  C    2.760921   3.908437   4.343986   0.000000
    35  H    4.036219   4.864970   5.131181   2.070107   0.000000
    36  H    3.309368   4.737953   4.872104   1.090981   2.415060
    37  H    4.706700   5.881119   6.450808   2.619676   4.170406
    38  H    6.722337   6.778228   8.213545   5.244688   6.304580
    39  H    5.472508   4.998132   6.635238   4.665393   5.504359
    40  N    6.764586   7.493694   8.485381   4.766290   6.007443
    41  O    6.975427   7.958346   8.725565   4.859014   6.077864
    42  O    7.756038   8.302781   9.439030   5.848314   6.992723
                   36         37         38         39         40
    36  H    0.000000
    37  H    2.324081   0.000000
    38  H    5.811989   4.314344   0.000000
    39  H    5.587468   5.032312   2.459562   0.000000
    40  N    4.797838   2.629320   2.737134   4.659183   0.000000
    41  O    4.608187   2.374974   3.964908   5.730513   1.239119
    42  O    5.976711   3.857597   2.464228   4.799334   1.238660
                   41         42
    41  O    0.000000
    42  O    2.192382   0.000000
 Stoichiometry    C19H18N2O3
 Framework group  C1[X(C19H18N2O3)]
 Deg. of freedom   120
 Full point group                 C1      NOp   1
 Largest Abelian subgroup         C1      NOp   1
 Largest concise Abelian subgroup C1      NOp   1
                         Standard orientation:                         
 ---------------------------------------------------------------------
 Center     Atomic      Atomic             Coordinates (Angstroms)
 Number     Number       Type             X           Y           Z
 ---------------------------------------------------------------------
      1          6           0        5.623304   -0.555900    0.904910
      2          6           0        5.305535   -1.642513    0.077405
      3          6           0        4.097616   -1.677804   -0.633257
      4          6           0        3.211082   -0.621443   -0.505707
      5          6           0        3.545165    0.463180    0.324052
      6          6           0        4.739840    0.512762    1.031272
      7          1           0        6.560367   -0.550029    1.455864
      8          1           0        6.003621   -2.471654   -0.006722
      9          1           0        4.976717    1.352739    1.675439
     10          1           0        3.870293   -2.533571   -1.257679
     11          6           0        2.407072    1.464530    0.307835
     12          6           0        1.349099    0.716444   -0.575560
     13          7           0        1.944560   -0.438344   -1.080697
     14          6           0        1.894707    1.710559    1.738509
     15          1           0        1.537984    0.782085    2.201521
     16          1           0        1.066680    2.427930    1.756994
     17          1           0        2.681504    2.117155    2.383439
     18          6           0        2.856890    2.775637   -0.351228
     19          1           0        3.237903    2.607848   -1.365927
     20          1           0        3.657297    3.255413    0.223441
     21          1           0        2.030642    3.491990   -0.423098
     22          6           0        0.110108    1.221831   -0.659694
     23          6           0       -2.015793   -0.047500   -0.590409
     24          6           0       -1.614343   -1.035063    0.480416
     25          8           0       -0.501270   -1.527675    0.600056
     26          6           0       -2.693307   -1.490123    1.394357
     27          6           0       -3.961786   -1.097625    1.218432
     28          6           0       -4.344793   -0.242641    0.113206
     29          6           0       -3.448375    0.195495   -0.790877
     30          6           0        1.370010   -1.479726   -1.902088
     31          1           0        0.440661   -1.161254   -2.381558
     32          1           0        1.161909   -2.379505   -1.313832
     33          1           0        2.054674   -1.752366   -2.714463
     34          6           0       -1.144312    0.774415   -1.213769
     35          1           0       -0.038068    2.202289   -0.202461
     36          1           0       -1.520054    1.471818   -1.963893
     37          1           0       -3.733966    0.866574   -1.598344
     38          1           0       -4.728722   -1.444342    1.906466
     39          1           0       -2.392609   -2.158431    2.192998
     40          7           0       -5.721353    0.267851    0.015704
     41          8           0       -5.979359    1.103778   -0.861835
     42          8           0       -6.538823   -0.150895    0.846771
 ---------------------------------------------------------------------
 Rotational constants (GHZ):           0.6463774           0.1068347           0.1026281
 Leave Link  202 at Fri Mar  8 20:06:42 2024, MaxMem=  2684354560 cpu:               0.5 elap:               0.0
 (Enter /s/ls4/groups/g0130/bin/g16/l301.exe)
 Standard basis: def2TZVP (5D, 7F)
 Ernie: Thresh=  0.10000D-02 Tol=  0.10000D-05 Strict=F.
 AO basis set in the form of general basis input (Overlap normalization):
      1 0
 S   6 1.00       0.000000000000
      0.1357534968D+05  0.6064550360D-03
      0.2035233368D+04  0.4697908888D-02
      0.4632256236D+03  0.2433247765D-01
      0.1312001960D+03  0.9739996831D-01
      0.4285301589D+02  0.3019558425D+00
      0.1558418577D+02  0.6623360914D+00
 S   2 1.00       0.000000000000
      0.6206713851D+01  0.6559530854D+00
      0.2576489653D+01  0.3758563329D+00
 S   1 1.00       0.000000000000
      0.5769633942D+00  0.1000000000D+01
 S   1 1.00       0.000000000000
      0.2297283136D+00  0.1000000000D+01
 S   1 1.00       0.000000000000
      0.9516444003D-01  0.1000000000D+01
 P   4 1.00       0.000000000000
      0.3469723224D+02  0.1132722000D-01
      0.7958262283D+01  0.7616965920D-01
      0.2378082688D+01  0.3019225220D+00
      0.8143320818D+00  0.7278502735D+00
 P   1 1.00       0.000000000000
      0.2888754725D+00  0.1000000000D+01
 P   1 1.00       0.000000000000
      0.1005682367D+00  0.1000000000D+01
 D   1 1.00       0.000000000000
      0.1097000000D+01  0.1000000000D+01
 D   1 1.00       0.000000000000
      0.3180000000D+00  0.1000000000D+01
 F   1 1.00       0.000000000000
      0.7610000000D+00  0.1000000000D+01
 ****
      2 0
 S   6 1.00       0.000000000000
      0.1357534968D+05  0.6064550360D-03
      0.2035233368D+04  0.4697908888D-02
      0.4632256236D+03  0.2433247765D-01
      0.1312001960D+03  0.9739996831D-01
      0.4285301589D+02  0.3019558425D+00
      0.1558418577D+02  0.6623360914D+00
 S   2 1.00       0.000000000000
      0.6206713851D+01  0.6559530854D+00
      0.2576489653D+01  0.3758563329D+00
 S   1 1.00       0.000000000000
      0.5769633942D+00  0.1000000000D+01
 S   1 1.00       0.000000000000
      0.2297283136D+00  0.1000000000D+01
 S   1 1.00       0.000000000000
      0.9516444003D-01  0.1000000000D+01
 P   4 1.00       0.000000000000
      0.3469723224D+02  0.1132722000D-01
      0.7958262283D+01  0.7616965920D-01
      0.2378082688D+01  0.3019225220D+00
      0.8143320818D+00  0.7278502735D+00
 P   1 1.00       0.000000000000
      0.2888754725D+00  0.1000000000D+01
 P   1 1.00       0.000000000000
      0.1005682367D+00  0.1000000000D+01
 D   1 1.00       0.000000000000
      0.1097000000D+01  0.1000000000D+01
 D   1 1.00       0.000000000000
      0.3180000000D+00  0.1000000000D+01
 F   1 1.00       0.000000000000
      0.7610000000D+00  0.1000000000D+01
 ****
      3 0
 S   6 1.00       0.000000000000
      0.1357534968D+05  0.6064550360D-03
      0.2035233368D+04  0.4697908888D-02
      0.4632256236D+03  0.2433247765D-01
      0.1312001960D+03  0.9739996831D-01
      0.4285301589D+02  0.3019558425D+00
      0.1558418577D+02  0.6623360914D+00
 S   2 1.00       0.000000000000
      0.6206713851D+01  0.6559530854D+00
      0.2576489653D+01  0.3758563329D+00
 S   1 1.00       0.000000000000
      0.5769633942D+00  0.1000000000D+01
 S   1 1.00       0.000000000000
      0.2297283136D+00  0.1000000000D+01
 S   1 1.00       0.000000000000
      0.9516444003D-01  0.1000000000D+01
 P   4 1.00       0.000000000000
      0.3469723224D+02  0.1132722000D-01
      0.7958262283D+01  0.7616965920D-01
      0.2378082688D+01  0.3019225220D+00
      0.8143320818D+00  0.7278502735D+00
 P   1 1.00       0.000000000000
      0.2888754725D+00  0.1000000000D+01
 P   1 1.00       0.000000000000
      0.1005682367D+00  0.1000000000D+01
 D   1 1.00       0.000000000000
      0.1097000000D+01  0.1000000000D+01
 D   1 1.00       0.000000000000
      0.3180000000D+00  0.1000000000D+01
 F   1 1.00       0.000000000000
      0.7610000000D+00  0.1000000000D+01
 ****
      4 0
 S   6 1.00       0.000000000000
      0.1357534968D+05  0.6064550360D-03
      0.2035233368D+04  0.4697908888D-02
      0.4632256236D+03  0.2433247765D-01
      0.1312001960D+03  0.9739996831D-01
      0.4285301589D+02  0.3019558425D+00
      0.1558418577D+02  0.6623360914D+00
 S   2 1.00       0.000000000000
      0.6206713851D+01  0.6559530854D+00
      0.2576489653D+01  0.3758563329D+00
 S   1 1.00       0.000000000000
      0.5769633942D+00  0.1000000000D+01
 S   1 1.00       0.000000000000
      0.2297283136D+00  0.1000000000D+01
 S   1 1.00       0.000000000000
      0.9516444003D-01  0.1000000000D+01
 P   4 1.00       0.000000000000
      0.3469723224D+02  0.1132722000D-01
      0.7958262283D+01  0.7616965920D-01
      0.2378082688D+01  0.3019225220D+00
      0.8143320818D+00  0.7278502735D+00
 P   1 1.00       0.000000000000
      0.2888754725D+00  0.1000000000D+01
 P   1 1.00       0.000000000000
      0.1005682367D+00  0.1000000000D+01
 D   1 1.00       0.000000000000
      0.1097000000D+01  0.1000000000D+01
 D   1 1.00       0.000000000000
      0.3180000000D+00  0.1000000000D+01
 F   1 1.00       0.000000000000
      0.7610000000D+00  0.1000000000D+01
 ****
      5 0
 S   6 1.00       0.000000000000
      0.1357534968D+05  0.6064550360D-03
      0.2035233368D+04  0.4697908888D-02
      0.4632256236D+03  0.2433247765D-01
      0.1312001960D+03  0.9739996831D-01
      0.4285301589D+02  0.3019558425D+00
      0.1558418577D+02  0.6623360914D+00
 S   2 1.00       0.000000000000
      0.6206713851D+01  0.6559530854D+00
      0.2576489653D+01  0.3758563329D+00
 S   1 1.00       0.000000000000
      0.5769633942D+00  0.1000000000D+01
 S   1 1.00       0.000000000000
      0.2297283136D+00  0.1000000000D+01
 S   1 1.00       0.000000000000
      0.9516444003D-01  0.1000000000D+01
 P   4 1.00       0.000000000000
      0.3469723224D+02  0.1132722000D-01
      0.7958262283D+01  0.7616965920D-01
      0.2378082688D+01  0.3019225220D+00
      0.8143320818D+00  0.7278502735D+00
 P   1 1.00       0.000000000000
      0.2888754725D+00  0.1000000000D+01
 P   1 1.00       0.000000000000
      0.1005682367D+00  0.1000000000D+01
 D   1 1.00       0.000000000000
      0.1097000000D+01  0.1000000000D+01
 D   1 1.00       0.000000000000
      0.3180000000D+00  0.1000000000D+01
 F   1 1.00       0.000000000000
      0.7610000000D+00  0.1000000000D+01
 ****
      6 0
 S   6 1.00       0.000000000000
      0.1357534968D+05  0.6064550360D-03
      0.2035233368D+04  0.4697908888D-02
      0.4632256236D+03  0.2433247765D-01
      0.1312001960D+03  0.9739996831D-01
      0.4285301589D+02  0.3019558425D+00
      0.1558418577D+02  0.6623360914D+00
 S   2 1.00       0.000000000000
      0.6206713851D+01  0.6559530854D+00
      0.2576489653D+01  0.3758563329D+00
 S   1 1.00       0.000000000000
      0.5769633942D+00  0.1000000000D+01
 S   1 1.00       0.000000000000
      0.2297283136D+00  0.1000000000D+01
 S   1 1.00       0.000000000000
      0.9516444003D-01  0.1000000000D+01
 P   4 1.00       0.000000000000
      0.3469723224D+02  0.1132722000D-01
      0.7958262283D+01  0.7616965920D-01
      0.2378082688D+01  0.3019225220D+00
      0.8143320818D+00  0.7278502735D+00
 P   1 1.00       0.000000000000
      0.2888754725D+00  0.1000000000D+01
 P   1 1.00       0.000000000000
      0.1005682367D+00  0.1000000000D+01
 D   1 1.00       0.000000000000
      0.1097000000D+01  0.1000000000D+01
 D   1 1.00       0.000000000000
      0.3180000000D+00  0.1000000000D+01
 F   1 1.00       0.000000000000
      0.7610000000D+00  0.1000000000D+01
 ****
      7 0
 S   3 1.00       0.000000000000
      0.3406134100D+02  0.2543930721D-01
      0.5123574600D+01  0.1900859489D+00
      0.1164662600D+01  0.8524411301D+00
 S   1 1.00       0.000000000000
      0.3272304100D+00  0.1000000000D+01
 S   1 1.00       0.000000000000
      0.1030724100D+00  0.1000000000D+01
 P   1 1.00       0.000000000000
      0.8000000000D+00  0.1000000000D+01
 ****
      8 0
 S   3 1.00       0.000000000000
      0.3406134100D+02  0.2543930721D-01
      0.5123574600D+01  0.1900859489D+00
      0.1164662600D+01  0.8524411301D+00
 S   1 1.00       0.000000000000
      0.3272304100D+00  0.1000000000D+01
 S   1 1.00       0.000000000000
      0.1030724100D+00  0.1000000000D+01
 P   1 1.00       0.000000000000
      0.8000000000D+00  0.1000000000D+01
 ****
      9 0
 S   3 1.00       0.000000000000
      0.3406134100D+02  0.2543930721D-01
      0.5123574600D+01  0.1900859489D+00
      0.1164662600D+01  0.8524411301D+00
 S   1 1.00       0.000000000000
      0.3272304100D+00  0.1000000000D+01
 S   1 1.00       0.000000000000
      0.1030724100D+00  0.1000000000D+01
 P   1 1.00       0.000000000000
      0.8000000000D+00  0.1000000000D+01
 ****
     10 0
 S   3 1.00       0.000000000000
      0.3406134100D+02  0.2543930721D-01
      0.5123574600D+01  0.1900859489D+00
      0.1164662600D+01  0.8524411301D+00
 S   1 1.00       0.000000000000
      0.3272304100D+00  0.1000000000D+01
 S   1 1.00       0.000000000000
      0.1030724100D+00  0.1000000000D+01
 P   1 1.00       0.000000000000
      0.8000000000D+00  0.1000000000D+01
 ****
     11 0
 S   6 1.00       0.000000000000
      0.1357534968D+05  0.6064550360D-03
      0.2035233368D+04  0.4697908888D-02
      0.4632256236D+03  0.2433247765D-01
      0.1312001960D+03  0.9739996831D-01
      0.4285301589D+02  0.3019558425D+00
      0.1558418577D+02  0.6623360914D+00
 S   2 1.00       0.000000000000
      0.6206713851D+01  0.6559530854D+00
      0.2576489653D+01  0.3758563329D+00
 S   1 1.00       0.000000000000
      0.5769633942D+00  0.1000000000D+01
 S   1 1.00       0.000000000000
      0.2297283136D+00  0.1000000000D+01
 S   1 1.00       0.000000000000
      0.9516444003D-01  0.1000000000D+01
 P   4 1.00       0.000000000000
      0.3469723224D+02  0.1132722000D-01
      0.7958262283D+01  0.7616965920D-01
      0.2378082688D+01  0.3019225220D+00
      0.8143320818D+00  0.7278502735D+00
 P   1 1.00       0.000000000000
      0.2888754725D+00  0.1000000000D+01
 P   1 1.00       0.000000000000
      0.1005682367D+00  0.1000000000D+01
 D   1 1.00       0.000000000000
      0.1097000000D+01  0.1000000000D+01
 D   1 1.00       0.000000000000
      0.3180000000D+00  0.1000000000D+01
 F   1 1.00       0.000000000000
      0.7610000000D+00  0.1000000000D+01
 ****
     12 0
 S   6 1.00       0.000000000000
      0.1357534968D+05  0.6064550360D-03
      0.2035233368D+04  0.4697908888D-02
      0.4632256236D+03  0.2433247765D-01
      0.1312001960D+03  0.9739996831D-01
      0.4285301589D+02  0.3019558425D+00
      0.1558418577D+02  0.6623360914D+00
 S   2 1.00       0.000000000000
      0.6206713851D+01  0.6559530854D+00
      0.2576489653D+01  0.3758563329D+00
 S   1 1.00       0.000000000000
      0.5769633942D+00  0.1000000000D+01
 S   1 1.00       0.000000000000
      0.2297283136D+00  0.1000000000D+01
 S   1 1.00       0.000000000000
      0.9516444003D-01  0.1000000000D+01
 P   4 1.00       0.000000000000
      0.3469723224D+02  0.1132722000D-01
      0.7958262283D+01  0.7616965920D-01
      0.2378082688D+01  0.3019225220D+00
      0.8143320818D+00  0.7278502735D+00
 P   1 1.00       0.000000000000
      0.2888754725D+00  0.1000000000D+01
 P   1 1.00       0.000000000000
      0.1005682367D+00  0.1000000000D+01
 D   1 1.00       0.000000000000
      0.1097000000D+01  0.1000000000D+01
 D   1 1.00       0.000000000000
      0.3180000000D+00  0.1000000000D+01
 F   1 1.00       0.000000000000
      0.7610000000D+00  0.1000000000D+01
 ****
     13 0
 S   6 1.00       0.000000000000
      0.1973080065D+05  0.5862640263D-03
      0.2957895874D+04  0.4542882059D-02
      0.6732213360D+03  0.2355841345D-01
      0.1906824949D+03  0.9470919329D-01
      0.6229544190D+02  0.2971978491D+00
      0.2265416118D+02  0.6691624690D+00
 S   2 1.00       0.000000000000
      0.8979147743D+01  0.6459668363D+00
      0.3686300237D+01  0.3870057439D+00
 S   1 1.00       0.000000000000
      0.8466007680D+00  0.1000000000D+01
 S   1 1.00       0.000000000000
      0.3364713377D+00  0.1000000000D+01
 S   1 1.00       0.000000000000
      0.1364765367D+00  0.1000000000D+01
 P   4 1.00       0.000000000000
      0.4920038051D+02  0.1144882510D-01
      0.1134679054D+02  0.7842233797D-01
      0.3427397241D+01  0.3081809474D+00
      0.1178552513D+01  0.7202719637D+00
 P   1 1.00       0.000000000000
      0.4164220497D+00  0.1000000000D+01
 P   1 1.00       0.000000000000
      0.1426082601D+00  0.1000000000D+01
 D   1 1.00       0.000000000000
      0.1654000000D+01  0.1000000000D+01
 D   1 1.00       0.000000000000
      0.4690000000D+00  0.1000000000D+01
 F   1 1.00       0.000000000000
      0.1093000000D+01  0.1000000000D+01
 ****
     14 0
 S   6 1.00       0.000000000000
      0.1357534968D+05  0.6064550360D-03
      0.2035233368D+04  0.4697908888D-02
      0.4632256236D+03  0.2433247765D-01
      0.1312001960D+03  0.9739996831D-01
      0.4285301589D+02  0.3019558425D+00
      0.1558418577D+02  0.6623360914D+00
 S   2 1.00       0.000000000000
      0.6206713851D+01  0.6559530854D+00
      0.2576489653D+01  0.3758563329D+00
 S   1 1.00       0.000000000000
      0.5769633942D+00  0.1000000000D+01
 S   1 1.00       0.000000000000
      0.2297283136D+00  0.1000000000D+01
 S   1 1.00       0.000000000000
      0.9516444003D-01  0.1000000000D+01
 P   4 1.00       0.000000000000
      0.3469723224D+02  0.1132722000D-01
      0.7958262283D+01  0.7616965920D-01
      0.2378082688D+01  0.3019225220D+00
      0.8143320818D+00  0.7278502735D+00
 P   1 1.00       0.000000000000
      0.2888754725D+00  0.1000000000D+01
 P   1 1.00       0.000000000000
      0.1005682367D+00  0.1000000000D+01
 D   1 1.00       0.000000000000
      0.1097000000D+01  0.1000000000D+01
 D   1 1.00       0.000000000000
      0.3180000000D+00  0.1000000000D+01
 F   1 1.00       0.000000000000
      0.7610000000D+00  0.1000000000D+01
 ****
     15 0
 S   3 1.00       0.000000000000
      0.3406134100D+02  0.2543930721D-01
      0.5123574600D+01  0.1900859489D+00
      0.1164662600D+01  0.8524411301D+00
 S   1 1.00       0.000000000000
      0.3272304100D+00  0.1000000000D+01
 S   1 1.00       0.000000000000
      0.1030724100D+00  0.1000000000D+01
 P   1 1.00       0.000000000000
      0.8000000000D+00  0.1000000000D+01
 ****
     16 0
 S   3 1.00       0.000000000000
      0.3406134100D+02  0.2543930721D-01
      0.5123574600D+01  0.1900859489D+00
      0.1164662600D+01  0.8524411301D+00
 S   1 1.00       0.000000000000
      0.3272304100D+00  0.1000000000D+01
 S   1 1.00       0.000000000000
      0.1030724100D+00  0.1000000000D+01
 P   1 1.00       0.000000000000
      0.8000000000D+00  0.1000000000D+01
 ****
     17 0
 S   3 1.00       0.000000000000
      0.3406134100D+02  0.2543930721D-01
      0.5123574600D+01  0.1900859489D+00
      0.1164662600D+01  0.8524411301D+00
 S   1 1.00       0.000000000000
      0.3272304100D+00  0.1000000000D+01
 S   1 1.00       0.000000000000
      0.1030724100D+00  0.1000000000D+01
 P   1 1.00       0.000000000000
      0.8000000000D+00  0.1000000000D+01
 ****
     18 0
 S   6 1.00       0.000000000000
      0.1357534968D+05  0.6064550360D-03
      0.2035233368D+04  0.4697908888D-02
      0.4632256236D+03  0.2433247765D-01
      0.1312001960D+03  0.9739996831D-01
      0.4285301589D+02  0.3019558425D+00
      0.1558418577D+02  0.6623360914D+00
 S   2 1.00       0.000000000000
      0.6206713851D+01  0.6559530854D+00
      0.2576489653D+01  0.3758563329D+00
 S   1 1.00       0.000000000000
      0.5769633942D+00  0.1000000000D+01
 S   1 1.00       0.000000000000
      0.2297283136D+00  0.1000000000D+01
 S   1 1.00       0.000000000000
      0.9516444003D-01  0.1000000000D+01
 P   4 1.00       0.000000000000
      0.3469723224D+02  0.1132722000D-01
      0.7958262283D+01  0.7616965920D-01
      0.2378082688D+01  0.3019225220D+00
      0.8143320818D+00  0.7278502735D+00
 P   1 1.00       0.000000000000
      0.2888754725D+00  0.1000000000D+01
 P   1 1.00       0.000000000000
      0.1005682367D+00  0.1000000000D+01
 D   1 1.00       0.000000000000
      0.1097000000D+01  0.1000000000D+01
 D   1 1.00       0.000000000000
      0.3180000000D+00  0.1000000000D+01
 F   1 1.00       0.000000000000
      0.7610000000D+00  0.1000000000D+01
 ****
     19 0
 S   3 1.00       0.000000000000
      0.3406134100D+02  0.2543930721D-01
      0.5123574600D+01  0.1900859489D+00
      0.1164662600D+01  0.8524411301D+00
 S   1 1.00       0.000000000000
      0.3272304100D+00  0.1000000000D+01
 S   1 1.00       0.000000000000
      0.1030724100D+00  0.1000000000D+01
 P   1 1.00       0.000000000000
      0.8000000000D+00  0.1000000000D+01
 ****
     20 0
 S   3 1.00       0.000000000000
      0.3406134100D+02  0.2543930721D-01
      0.5123574600D+01  0.1900859489D+00
      0.1164662600D+01  0.8524411301D+00
 S   1 1.00       0.000000000000
      0.3272304100D+00  0.1000000000D+01
 S   1 1.00       0.000000000000
      0.1030724100D+00  0.1000000000D+01
 P   1 1.00       0.000000000000
      0.8000000000D+00  0.1000000000D+01
 ****
     21 0
 S   3 1.00       0.000000000000
      0.3406134100D+02  0.2543930721D-01
      0.5123574600D+01  0.1900859489D+00
      0.1164662600D+01  0.8524411301D+00
 S   1 1.00       0.000000000000
      0.3272304100D+00  0.1000000000D+01
 S   1 1.00       0.000000000000
      0.1030724100D+00  0.1000000000D+01
 P   1 1.00       0.000000000000
      0.8000000000D+00  0.1000000000D+01
 ****
     22 0
 S   6 1.00       0.000000000000
      0.1357534968D+05  0.6064550360D-03
      0.2035233368D+04  0.4697908888D-02
      0.4632256236D+03  0.2433247765D-01
      0.1312001960D+03  0.9739996831D-01
      0.4285301589D+02  0.3019558425D+00
      0.1558418577D+02  0.6623360914D+00
 S   2 1.00       0.000000000000
      0.6206713851D+01  0.6559530854D+00
      0.2576489653D+01  0.3758563329D+00
 S   1 1.00       0.000000000000
      0.5769633942D+00  0.1000000000D+01
 S   1 1.00       0.000000000000
      0.2297283136D+00  0.1000000000D+01
 S   1 1.00       0.000000000000
      0.9516444003D-01  0.1000000000D+01
 P   4 1.00       0.000000000000
      0.3469723224D+02  0.1132722000D-01
      0.7958262283D+01  0.7616965920D-01
      0.2378082688D+01  0.3019225220D+00
      0.8143320818D+00  0.7278502735D+00
 P   1 1.00       0.000000000000
      0.2888754725D+00  0.1000000000D+01
 P   1 1.00       0.000000000000
      0.1005682367D+00  0.1000000000D+01
 D   1 1.00       0.000000000000
      0.1097000000D+01  0.1000000000D+01
 D   1 1.00       0.000000000000
      0.3180000000D+00  0.1000000000D+01
 F   1 1.00       0.000000000000
      0.7610000000D+00  0.1000000000D+01
 ****
     23 0
 S   6 1.00       0.000000000000
      0.1357534968D+05  0.6064550360D-03
      0.2035233368D+04  0.4697908888D-02
      0.4632256236D+03  0.2433247765D-01
      0.1312001960D+03  0.9739996831D-01
      0.4285301589D+02  0.3019558425D+00
      0.1558418577D+02  0.6623360914D+00
 S   2 1.00       0.000000000000
      0.6206713851D+01  0.6559530854D+00
      0.2576489653D+01  0.3758563329D+00
 S   1 1.00       0.000000000000
      0.5769633942D+00  0.1000000000D+01
 S   1 1.00       0.000000000000
      0.2297283136D+00  0.1000000000D+01
 S   1 1.00       0.000000000000
      0.9516444003D-01  0.1000000000D+01
 P   4 1.00       0.000000000000
      0.3469723224D+02  0.1132722000D-01
      0.7958262283D+01  0.7616965920D-01
      0.2378082688D+01  0.3019225220D+00
      0.8143320818D+00  0.7278502735D+00
 P   1 1.00       0.000000000000
      0.2888754725D+00  0.1000000000D+01
 P   1 1.00       0.000000000000
      0.1005682367D+00  0.1000000000D+01
 D   1 1.00       0.000000000000
      0.1097000000D+01  0.1000000000D+01
 D   1 1.00       0.000000000000
      0.3180000000D+00  0.1000000000D+01
 F   1 1.00       0.000000000000
      0.7610000000D+00  0.1000000000D+01
 ****
     24 0
 S   6 1.00       0.000000000000
      0.1357534968D+05  0.6064550360D-03
      0.2035233368D+04  0.4697908888D-02
      0.4632256236D+03  0.2433247765D-01
      0.1312001960D+03  0.9739996831D-01
      0.4285301589D+02  0.3019558425D+00
      0.1558418577D+02  0.6623360914D+00
 S   2 1.00       0.000000000000
      0.6206713851D+01  0.6559530854D+00
      0.2576489653D+01  0.3758563329D+00
 S   1 1.00       0.000000000000
      0.5769633942D+00  0.1000000000D+01
 S   1 1.00       0.000000000000
      0.2297283136D+00  0.1000000000D+01
 S   1 1.00       0.000000000000
      0.9516444003D-01  0.1000000000D+01
 P   4 1.00       0.000000000000
      0.3469723224D+02  0.1132722000D-01
      0.7958262283D+01  0.7616965920D-01
      0.2378082688D+01  0.3019225220D+00
      0.8143320818D+00  0.7278502735D+00
 P   1 1.00       0.000000000000
      0.2888754725D+00  0.1000000000D+01
 P   1 1.00       0.000000000000
      0.1005682367D+00  0.1000000000D+01
 D   1 1.00       0.000000000000
      0.1097000000D+01  0.1000000000D+01
 D   1 1.00       0.000000000000
      0.3180000000D+00  0.1000000000D+01
 F   1 1.00       0.000000000000
      0.7610000000D+00  0.1000000000D+01
 ****
     25 0
 S   6 1.00       0.000000000000
      0.2703238263D+05  0.5722733521D-03
      0.4052387139D+04  0.4435323349D-02
      0.9223272271D+03  0.2302010771D-01
      0.2612407099D+03  0.9282249067D-01
      0.8535464135D+02  0.2937850001D+00
      0.3103503524D+02  0.6740160450D+00
 S   2 1.00       0.000000000000
      0.1226086073D+02  0.6383993703D+00
      0.4998707601D+01  0.3953458713D+00
 S   1 1.00       0.000000000000
      0.1170310816D+01  0.1000000000D+01
 S   1 1.00       0.000000000000
      0.4647474099D+00  0.1000000000D+01
 S   1 1.00       0.000000000000
      0.1850453636D+00  0.1000000000D+01
 P   4 1.00       0.000000000000
      0.6327495480D+02  0.1201833222D-01
      0.1462704938D+02  0.8300542179D-01
      0.4450122346D+01  0.3199174393D+00
      0.1527579965D+01  0.7071554292D+00
 P   1 1.00       0.000000000000
      0.5293511794D+00  0.1000000000D+01
 P   1 1.00       0.000000000000
      0.1747842127D+00  0.1000000000D+01
 D   1 1.00       0.000000000000
      0.2314000000D+01  0.1000000000D+01
 D   1 1.00       0.000000000000
      0.6450000000D+00  0.1000000000D+01
 F   1 1.00       0.000000000000
      0.1428000000D+01  0.1000000000D+01
 ****
     26 0
 S   6 1.00       0.000000000000
      0.1357534968D+05  0.6064550360D-03
      0.2035233368D+04  0.4697908888D-02
      0.4632256236D+03  0.2433247765D-01
      0.1312001960D+03  0.9739996831D-01
      0.4285301589D+02  0.3019558425D+00
      0.1558418577D+02  0.6623360914D+00
 S   2 1.00       0.000000000000
      0.6206713851D+01  0.6559530854D+00
      0.2576489653D+01  0.3758563329D+00
 S   1 1.00       0.000000000000
      0.5769633942D+00  0.1000000000D+01
 S   1 1.00       0.000000000000
      0.2297283136D+00  0.1000000000D+01
 S   1 1.00       0.000000000000
      0.9516444003D-01  0.1000000000D+01
 P   4 1.00       0.000000000000
      0.3469723224D+02  0.1132722000D-01
      0.7958262283D+01  0.7616965920D-01
      0.2378082688D+01  0.3019225220D+00
      0.8143320818D+00  0.7278502735D+00
 P   1 1.00       0.000000000000
      0.2888754725D+00  0.1000000000D+01
 P   1 1.00       0.000000000000
      0.1005682367D+00  0.1000000000D+01
 D   1 1.00       0.000000000000
      0.1097000000D+01  0.1000000000D+01
 D   1 1.00       0.000000000000
      0.3180000000D+00  0.1000000000D+01
 F   1 1.00       0.000000000000
      0.7610000000D+00  0.1000000000D+01
 ****
     27 0
 S   6 1.00       0.000000000000
      0.1357534968D+05  0.6064550360D-03
      0.2035233368D+04  0.4697908888D-02
      0.4632256236D+03  0.2433247765D-01
      0.1312001960D+03  0.9739996831D-01
      0.4285301589D+02  0.3019558425D+00
      0.1558418577D+02  0.6623360914D+00
 S   2 1.00       0.000000000000
      0.6206713851D+01  0.6559530854D+00
      0.2576489653D+01  0.3758563329D+00
 S   1 1.00       0.000000000000
      0.5769633942D+00  0.1000000000D+01
 S   1 1.00       0.000000000000
      0.2297283136D+00  0.1000000000D+01
 S   1 1.00       0.000000000000
      0.9516444003D-01  0.1000000000D+01
 P   4 1.00       0.000000000000
      0.3469723224D+02  0.1132722000D-01
      0.7958262283D+01  0.7616965920D-01
      0.2378082688D+01  0.3019225220D+00
      0.8143320818D+00  0.7278502735D+00
 P   1 1.00       0.000000000000
      0.2888754725D+00  0.1000000000D+01
 P   1 1.00       0.000000000000
      0.1005682367D+00  0.1000000000D+01
 D   1 1.00       0.000000000000
      0.1097000000D+01  0.1000000000D+01
 D   1 1.00       0.000000000000
      0.3180000000D+00  0.1000000000D+01
 F   1 1.00       0.000000000000
      0.7610000000D+00  0.1000000000D+01
 ****
     28 0
 S   6 1.00       0.000000000000
      0.1357534968D+05  0.6064550360D-03
      0.2035233368D+04  0.4697908888D-02
      0.4632256236D+03  0.2433247765D-01
      0.1312001960D+03  0.9739996831D-01
      0.4285301589D+02  0.3019558425D+00
      0.1558418577D+02  0.6623360914D+00
 S   2 1.00       0.000000000000
      0.6206713851D+01  0.6559530854D+00
      0.2576489653D+01  0.3758563329D+00
 S   1 1.00       0.000000000000
      0.5769633942D+00  0.1000000000D+01
 S   1 1.00       0.000000000000
      0.2297283136D+00  0.1000000000D+01
 S   1 1.00       0.000000000000
      0.9516444003D-01  0.1000000000D+01
 P   4 1.00       0.000000000000
      0.3469723224D+02  0.1132722000D-01
      0.7958262283D+01  0.7616965920D-01
      0.2378082688D+01  0.3019225220D+00
      0.8143320818D+00  0.7278502735D+00
 P   1 1.00       0.000000000000
      0.2888754725D+00  0.1000000000D+01
 P   1 1.00       0.000000000000
      0.1005682367D+00  0.1000000000D+01
 D   1 1.00       0.000000000000
      0.1097000000D+01  0.1000000000D+01
 D   1 1.00       0.000000000000
      0.3180000000D+00  0.1000000000D+01
 F   1 1.00       0.000000000000
      0.7610000000D+00  0.1000000000D+01
 ****
     29 0
 S   6 1.00       0.000000000000
      0.1357534968D+05  0.6064550360D-03
      0.2035233368D+04  0.4697908888D-02
      0.4632256236D+03  0.2433247765D-01
      0.1312001960D+03  0.9739996831D-01
      0.4285301589D+02  0.3019558425D+00
      0.1558418577D+02  0.6623360914D+00
 S   2 1.00       0.000000000000
      0.6206713851D+01  0.6559530854D+00
      0.2576489653D+01  0.3758563329D+00
 S   1 1.00       0.000000000000
      0.5769633942D+00  0.1000000000D+01
 S   1 1.00       0.000000000000
      0.2297283136D+00  0.1000000000D+01
 S   1 1.00       0.000000000000
      0.9516444003D-01  0.1000000000D+01
 P   4 1.00       0.000000000000
      0.3469723224D+02  0.1132722000D-01
      0.7958262283D+01  0.7616965920D-01
      0.2378082688D+01  0.3019225220D+00
      0.8143320818D+00  0.7278502735D+00
 P   1 1.00       0.000000000000
      0.2888754725D+00  0.1000000000D+01
 P   1 1.00       0.000000000000
      0.1005682367D+00  0.1000000000D+01
 D   1 1.00       0.000000000000
      0.1097000000D+01  0.1000000000D+01
 D   1 1.00       0.000000000000
      0.3180000000D+00  0.1000000000D+01
 F   1 1.00       0.000000000000
      0.7610000000D+00  0.1000000000D+01
 ****
     30 0
 S   6 1.00       0.000000000000
      0.1357534968D+05  0.6064550360D-03
      0.2035233368D+04  0.4697908888D-02
      0.4632256236D+03  0.2433247765D-01
      0.1312001960D+03  0.9739996831D-01
      0.4285301589D+02  0.3019558425D+00
      0.1558418577D+02  0.6623360914D+00
 S   2 1.00       0.000000000000
      0.6206713851D+01  0.6559530854D+00
      0.2576489653D+01  0.3758563329D+00
 S   1 1.00       0.000000000000
      0.5769633942D+00  0.1000000000D+01
 S   1 1.00       0.000000000000
      0.2297283136D+00  0.1000000000D+01
 S   1 1.00       0.000000000000
      0.9516444003D-01  0.1000000000D+01
 P   4 1.00       0.000000000000
      0.3469723224D+02  0.1132722000D-01
      0.7958262283D+01  0.7616965920D-01
      0.2378082688D+01  0.3019225220D+00
      0.8143320818D+00  0.7278502735D+00
 P   1 1.00       0.000000000000
      0.2888754725D+00  0.1000000000D+01
 P   1 1.00       0.000000000000
      0.1005682367D+00  0.1000000000D+01
 D   1 1.00       0.000000000000
      0.1097000000D+01  0.1000000000D+01
 D   1 1.00       0.000000000000
      0.3180000000D+00  0.1000000000D+01
 F   1 1.00       0.000000000000
      0.7610000000D+00  0.1000000000D+01
 ****
     31 0
 S   3 1.00       0.000000000000
      0.3406134100D+02  0.2543930721D-01
[...]
 175,-0.00000042,0.00000061,-0.00001043,-0.00002278,-0.00002915,-0.0000
 7679,-0.00008841,0.00018733,0.00000981,0.00022043,-0.00016219,0.000001
 95,0.00000587,-0.00001896,-0.00000852,0.00000558,-0.00000027,-0.000002
 25,0.00000095,0.00000077,0.00000654,-0.00000322,-0.00000090,0.00001879
 ,0.00000032,0.00000839,-0.00000083,0.00000162,0.00000011,-0.00000004,-
 0.00000419,-0.00000673,-0.00000146,-0.00000090,-0.00000070,0.00022326,
 -0.00001214,-0.00007320,-0.00001097,0.00066272,-0.00025414,0.00230297,
 -0.00413539,0.00426548,0.00026976,0.00038802,-0.00138972,0.00014174,-0
 .00849287,-0.00551478,0.01554672,-0.13734360,-0.26141086,0.00157618,-0
 .00661569,-0.00609013,-0.00197236,-0.00164695,0.00141334,0.00004917,-0
 .00003174,-0.00000852,-0.00000107,0.00000223,0.00000575,-0.00000766,-0
 .00000247,-0.00000059,-0.00000471,0.00000511,-0.00000418,-0.00012763,0
 .00036517,0.00004491,0.00003366,-0.00003844,0.00002185,0.00004710,0.00
 002048,0.00003325,0.00020845,-0.00042242,-0.00011971,-0.02132947,0.152
 70212,0.27210909,0.00001386,0.00002281,-0.00000324,0.00002035,-0.00000
 671,-0.00001009,0.00000426,-0.00001284,0.00000146,-0.00006372,-0.00000
 759,0.00003861,0.00003394,0.00000006,-0.00001129,-0.00001986,0.0000015
 4,-0.00000030,0.00000225,0.00000161,0.00000066,0.00000326,0.00000223,-
 0.00000167,0.00000149,-0.00000240,-0.00000058,-0.00000266,0.00000032,-
 0.00000018,-0.00001853,-0.00001252,-0.00003559,-0.00023358,-0.00027557
 ,0.00009164,0.00004642,0.00023213,-0.00002078,0.00000554,0.00000878,-0
 .00001554,-0.00000545,0.00000226,-0.00000035,-0.00000561,0.00000534,-0
 .00000172,0.00000906,-0.00000379,-0.00000069,0.00002453,-0.00000140,0.
 00001156,-0.00000097,0.00000188,0.00000109,0.00000266,-0.00000535,-0.0
 0000871,-0.00000304,0.00000233,0.00000194,0.00033008,0.00000725,-0.000
 32035,0.00055210,-0.00043994,0.00023356,0.00253843,0.00208222,0.003799
 29,0.00174693,0.00048641,-0.00075135,-0.25035282,-0.10063378,-0.088796
 54,-0.01879038,-0.01181723,-0.01134042,-0.00156941,0.00050449,0.004025
 92,0.00003391,0.00036192,0.00046813,0.00003566,-0.00004268,-0.00002133
 ,0.00000474,-0.00000777,0.00000739,-0.00001913,-0.00000156,0.00001577,
 0.00000053,0.00000967,-0.00000062,-0.00004826,0.00046772,0.00055046,0.
 00005577,-0.00004158,0.00002355,0.00000837,0.00002777,0.00000882,-0.00
 004814,0.00000800,-0.00011232,0.00099020,0.00110275,-0.00062788,0.2659
 0285,0.00000639,0.00001127,-0.00000349,0.00000886,-0.00000433,-0.00000
 192,0.00000122,-0.00000007,-0.00000388,-0.00004525,-0.00001067,0.00003
 197,0.00002542,-0.00000501,-0.00000451,-0.00000764,-0.00000115,0.00000
 227,0.00000183,0.00000089,-0.00000013,0.00000119,0.00000111,-0.0000000
 6,0.00000123,-0.00000191,-0.00000118,-0.00000153,-0.00000358,0.0000024
 3,-0.00000446,-0.00000064,-0.00000848,-0.00002779,-0.00008629,0.000099
 53,-0.00001238,0.00007453,-0.00002659,0.00001608,-0.00000117,-0.000014
 40,-0.00001093,0.00000732,-0.00000952,-0.00000266,-0.00000075,-0.00000
 095,0.00000480,-0.00000660,-0.00000518,0.00001465,-0.00000021,0.000006
 16,-0.00000144,0.00000044,0.00000070,0.00000193,-0.00000157,-0.0000059
 4,-0.00000283,0.00000183,0.00000108,0.00006528,0.00005824,0.00000781,0
 .00026355,0.00129427,-0.00413957,-0.01582106,-0.00192417,-0.00523736,0
 .00170810,-0.00082092,0.00283255,-0.10026158,-0.09094392,-0.05605774,0
 .00463841,0.00493002,0.00164556,-0.00035562,0.00625090,-0.00351883,0.0
 0076575,-0.00071624,-0.00046472,0.00002891,0.00001940,-0.00000365,0.00
 001131,-0.00000510,0.00003264,-0.00001920,-0.00002932,0.00001090,0.000
 01338,-0.00000017,-0.00002130,-0.00086570,-0.00065580,0.00037484,0.000
 00972,0.00000316,-0.00003627,-0.00007603,-0.00017696,-0.00022013,0.000
 03805,-0.00031221,0.00020861,0.00071206,-0.00403431,0.00324290,0.10885
 121,0.08617353,0.00001427,0.00001757,0.00000041,0.00001829,-0.00000092
 ,-0.00000804,0.00000531,-0.00001150,0.00000866,-0.00004993,0.00000394,
 0.00003157,0.00003237,-0.00000429,-0.00001054,-0.00001503,0.00000363,0
 .00000040,0.00000117,0.00000161,-0.00000021,0.00000293,0.00000187,-0.0
 0000280,0.00000098,-0.00000159,-0.00000095,-0.00000400,0.00000180,-0.0
 0000253,-0.00001809,0.00000465,-0.00002556,-0.00030314,-0.00021222,-0.
 00010237,0.00006519,0.00015196,0.00001447,-0.00001216,0.00000491,-0.00
 001458,0.00000163,0.00000044,0.00000914,-0.00000188,0.00000783,-0.0000
 0264,0.00000769,0.00000259,0.00000738,0.00002080,-0.00000445,0.0000076
 9,-0.00000066,0.00000206,0.00000197,0.00000367,-0.00000327,-0.00000736
 ,-0.00000203,0.00000588,0.00000429,0.00023462,-0.00000081,-0.00021028,
 0.00120800,-0.00388189,-0.00338630,-0.02355344,-0.01178992,-0.00641298
 ,0.00028584,0.00323972,0.00232541,-0.08855483,-0.05534370,-0.09278200,
 0.01457255,0.00689243,0.00909681,0.00297715,-0.00374281,0.00178677,0.0
 0101555,-0.00003758,-0.00108559,0.00003253,-0.00002093,-0.00000722,0.0
 0000756,-0.00001508,0.00001829,-0.00002858,-0.00000282,-0.00000209,0.0
 0000352,0.00001315,-0.00000053,-0.00143752,0.00005642,0.00006101,0.000
 13049,-0.00006687,0.00003895,0.00003653,-0.00027301,-0.00024932,-0.000
 09042,0.00020731,-0.00007472,-0.00119863,0.00310706,-0.00101913,0.0934
 3789,0.06164948,0.09137741,0.00047970,0.00070026,-0.00010610,0.0005943
 4,-0.00021021,-0.00029278,0.00012486,-0.00042737,-0.00009132,-0.002103
 29,-0.00029935,0.00126898,0.00100123,-0.00002963,-0.00043017,-0.000606
 44,0.00007329,-0.00000106,0.00009435,0.00005592,0.00001830,0.00011271,
 0.00008131,-0.00003588,0.00005594,-0.00009481,-0.00001862,-0.00007756,
 -0.00005984,0.00008435,-0.00076155,-0.00047087,-0.00104503,-0.00786540
 ,-0.00866122,0.00278813,0.00152105,0.00635296,0.00145560,0.00055274,0.
 00030389,-0.00059321,-0.00053872,0.00021959,-0.00006649,-0.00017704,0.
 00018011,-0.00003590,0.00034524,-0.00020595,-0.00015401,0.00100056,0.0
 0000927,0.00039603,-0.00003243,0.00006671,0.00002811,0.00008193,-0.000
 22831,-0.00034599,-0.00011689,0.00005522,0.00007663,0.01076547,0.00078
 064,-0.00926206,0.03287749,-0.00532029,-0.01749783,-0.02559827,0.00143
 685,0.00742836,0.02354908,-0.00086416,-0.01223554,0.00989214,-0.011643
 45,-0.01794668,-0.06073281,-0.00275533,0.01398653,-0.13251246,-0.01540
 223,-0.00435324,-0.02973747,0.03011306,0.05807449,0.00137522,-0.000752
 01,-0.00028803,0.00025218,-0.00029850,0.00029459,-0.00047872,-0.000766
 80,0.00061676,0.00010990,0.00020184,-0.00039365,-0.00422910,0.00946961
 ,0.01670219,0.00151810,-0.00123322,0.00074484,-0.00146392,0.00028506,-
 0.00085656,-0.00214192,-0.00127057,-0.00376177,0.00114030,0.00156223,0
 .00076748,-0.00008729,0.00024745,0.00105075,0.68423077,-0.00004039,-0.
 00006075,0.00000763,-0.00005074,0.00001748,0.00002185,-0.00000818,0.00
 003799,0.00000860,0.00020275,0.00004569,-0.00010637,-0.00006870,-0.000
 00136,0.00003264,0.00005169,-0.00000184,-0.00000513,-0.00000757,-0.000
 00435,0.00000024,-0.00001044,-0.00000724,0.00000455,-0.00000405,0.0000
 0802,0.00000189,0.00000748,0.00000485,-0.00000431,0.00006983,0.0000746
 9,0.00006799,0.00049300,0.00079233,-0.00029625,-0.00008075,-0.00050298
 ,-0.00007100,-0.00006500,-0.00002525,0.00004111,0.00006685,-0.00002623
 ,0.00001007,0.00001283,-0.00001278,0.00000005,-0.00002791,0.00002507,0
 .00002247,-0.00009216,-0.00001096,-0.00002712,0.00000545,-0.00000226,-
 0.00000333,-0.00000651,0.00002230,0.00003007,0.00000935,0.00000007,-0.
 00000451,-0.00091270,-0.00084804,0.00075269,-0.00491794,0.00325670,-0.
 00560036,0.00200407,-0.00280088,-0.00250458,-0.00263037,0.00015112,0.0
 0208941,-0.00603900,0.00271476,-0.00208828,-0.00240017,0.00179278,0.01
 519855,-0.00632292,-0.09254898,-0.01835114,0.02337011,-0.00453728,-0.0
 0501949,-0.00015042,0.00006120,-0.00001343,0.00001048,0.00000866,-0.00
 001842,0.00002636,0.00008834,-0.00008637,0.00001227,-0.00000716,0.0000
 3868,0.00076041,0.00115864,-0.00285927,0.00015915,-0.00009666,0.000010
 14,-0.00010515,-0.00000806,-0.00002063,0.00000562,-0.00428414,0.001062
 31,-0.00036836,-0.00318437,-0.00038320,-0.00103533,0.00158886,-0.00039
 315,0.11841641,0.45534820,-0.00021443,-0.00030187,0.00004559,-0.000253
 08,0.00008705,0.00012016,-0.00006568,0.00018087,0.00004354,0.00101781,
 0.00018896,-0.00059555,-0.00043153,0.00002991,0.00017657,0.00026443,-0
 .00003058,-0.00000363,-0.00004303,-0.00002504,-0.00000387,-0.00005151,
 -0.00003772,0.00001816,-0.00002525,0.00004330,0.00000889,0.00003991,0.
 00003172,-0.00003380,0.00033557,0.00019708,0.00038191,0.00297550,0.003
 06958,-0.00149245,-0.00061827,-0.00255163,-0.00043321,-0.00029946,-0.0
 0012840,0.00024204,0.00030197,-0.00012352,0.00004067,0.00007827,-0.000
 07618,0.00001578,-0.00015214,0.00010809,0.00010011,-0.00041658,-0.0000
 1203,-0.00017443,0.00001591,-0.00002705,-0.00000708,-0.00003594,0.0000
 9891,0.00014615,0.00005087,-0.00002379,-0.00002919,-0.00425785,-0.0000
 4447,0.00316115,-0.01624257,-0.00679446,0.00395375,0.01273305,-0.00198
 429,-0.00745996,-0.01325758,0.00114791,0.00716104,-0.01140185,-0.00000
 449,0.00846335,0.01494013,0.01501961,0.01150976,0.01008802,-0.01388913
 ,-0.10480239,0.04297572,-0.00845840,-0.03688703,-0.00058113,0.00026573
 ,0.00009324,-0.00011420,0.00010966,-0.00015306,0.00018379,0.00042183,-
 0.00029716,-0.00005409,-0.00007133,0.00021318,0.00343911,-0.00477469,-
 0.00613079,-0.00072135,0.00063986,-0.00042185,0.00076925,-0.00019252,0
 .00028016,-0.00101877,0.00174215,-0.00165684,-0.00201541,-0.00113244,-
 0.00366741,-0.00098465,-0.00085921,0.00093361,0.03018165,0.26494406,0.
 65691905,-0.00019734,-0.00028754,0.00004514,-0.00024086,0.00008646,0.0
 0012152,-0.00005347,0.00017195,0.00004149,0.00091410,0.00014342,-0.000
 54263,-0.00041408,0.00001633,0.00016990,0.00025147,-0.00002781,0.00000
 017,-0.00003963,-0.00002311,-0.00000808,-0.00004709,-0.00003366,0.0000
 1268,-0.00002400,0.00003947,0.00000635,0.00003088,0.00002680,-0.000039
 06,0.00030727,0.00019086,0.00039105,0.00299035,0.00329408,-0.00133778,
 -0.00058446,-0.00252857,-0.00037823,-0.00024556,-0.00012680,0.00023171
 ,0.00024313,-0.00010061,0.00003644,0.00007388,-0.00006994,0.00001467,-
 0.00014068,0.00009135,0.00007492,-0.00040373,-0.00001020,-0.00016697,0
 .00001400,-0.00002775,-0.00000626,-0.00003298,0.00009189,0.00014109,0.
 00004806,-0.00002013,-0.00003022,-0.00412065,-0.00024221,0.00359436,-0
 .01127726,0.00101878,0.00538143,0.00955437,-0.00229511,-0.00548791,-0.
 00999478,0.00095141,0.00591379,-0.00678155,0.00261813,0.00550473,0.007
 72205,0.00512647,0.00766883,-0.08215415,-0.02155386,0.00334560,0.00697
 304,-0.00898590,-0.01724534,-0.00057761,0.00027300,0.00008093,-0.00010
 622,0.00012518,-0.00012587,0.00018767,0.00034270,-0.00026587,-0.000045
 45,-0.00008010,0.00017635,0.00188058,-0.00377776,-0.00639241,-0.000602
 23,0.00049105,-0.00027281,0.00059182,-0.00010054,0.00032577,-0.0023699
 7,0.00056183,0.00224836,0.00082464,-0.00006132,-0.00026495,-0.00089525
 ,0.00016963,0.00019626,-0.36908528,-0.13238662,-0.10306443,0.44575177,
 -0.00005935,-0.00008619,0.00001356,-0.00007270,0.00002641,0.00003663,-
 0.00001464,0.00005389,0.00001332,0.00026744,0.00004369,-0.00015934,-0.
 00012119,0.00000270,0.00005276,0.00007565,-0.00000847,0.00000076,-0.00
 001214,-0.00000711,-0.00000257,-0.00001388,-0.00001015,0.00000361,-0.0
 0000759,0.00001201,0.00000201,0.00000936,0.00000831,-0.00001242,0.0000
 9666,0.00006256,0.00012356,0.00094788,0.00097783,-0.00040700,-0.000180
 89,-0.00075056,-0.00018283,-0.00008101,-0.00004047,0.00007214,0.000079
 10,-0.00003365,0.00001125,0.00002266,-0.00002024,0.00000560,-0.0000432
 2,0.00002865,0.00002416,-0.00012566,-0.00000383,-0.00005167,0.00000345
 ,-0.00000863,-0.00000229,-0.00000894,0.00002928,0.00004358,0.00001506,
 -0.00000483,-0.00000825,-0.00130501,-0.00001105,0.00108303,-0.00404923
 ,0.00020405,0.00335691,0.00352711,-0.00004402,-0.00182847,-0.00315817,
 0.00022881,0.00195889,-0.00121489,0.00097986,0.00287914,0.00245337,0.0
 0476653,-0.00210059,-0.02434445,0.01685859,0.00376703,0.00594758,-0.00
 402259,-0.01068213,-0.00017638,0.00008897,0.00002792,-0.00003682,0.000
 03470,-0.00003402,0.00005618,0.00010806,-0.00007735,-0.00001407,-0.000
 02316,0.00005351,0.00062869,-0.00134905,-0.00205380,-0.00020389,0.0001
 7225,-0.00011264,0.00022492,0.00001233,0.00017028,0.00150865,0.0012364
 3,0.00096904,0.00059217,0.00028514,0.00023031,0.00006076,-0.00069724,0
 .00036750,-0.12414918,-0.16200518,-0.07374741,0.19048151,0.16351201,-0
 .00002332,-0.00003525,0.00000570,-0.00003061,0.00001066,0.00001610,-0.
 00000294,0.00002701,0.00000771,0.00008965,0.00001009,-0.00005585,-0.00
 004015,-0.00000360,0.00002361,0.00003096,-0.00000466,0.00000203,-0.000
 00473,-0.00000284,-0.00000197,-0.00000579,-0.00000384,0.00000094,-0.00
 000286,0.00000462,0.00000015,0.00000208,0.00000182,-0.00000619,0.00004
 231,0.00003628,0.00006471,0.00044274,0.00049060,-0.00017964,-0.0000695
 4,-0.00034043,-0.00016010,-0.00003820,-0.00001684,0.00003269,0.0000369
 8,-0.00001449,0.00000566,0.00000927,-0.00000951,0.00000133,-0.00001807
 ,0.00001189,0.00001157,-0.00005774,-0.00000193,-0.00002117,0.00000070,
 -0.00000418,-0.00000016,-0.00000143,0.00001418,0.00001931,0.00000509,0
 .00000051,-0.00000316,-0.00066147,-0.00006896,0.00051696,-0.00252151,0
 .00151758,0.00250099,0.00207107,-0.00009522,-0.00036621,-0.00121121,0.
 00009324,0.00090071,0.00040289,0.00173076,0.00169840,0.00301168,-0.003
 29744,-0.00044979,-0.00114845,0.00276247,0.02454624,0.00735704,-0.0047
 5378,-0.00895871,-0.00009527,0.00004881,0.00001374,-0.00001571,0.00001
 811,-0.00000341,0.00001817,0.00004511,-0.00003722,-0.00000217,-0.00001
 022,0.00001989,0.00029239,-0.00062375,-0.00114489,-0.00007128,0.000069
 67,-0.00007038,0.00004869,0.00006102,0.00014113,0.00348106,0.00109979,
 0.00107301,0.00063281,0.00042494,0.00047863,0.00013452,0.00035337,-0.0
 0041852,-0.09020394,-0.07064197,-0.16296411,0.14612586,0.13562614,0.18
 907962,-0.00010399,-0.00015500,0.00002335,-0.00013301,0.00004809,0.000
 06618,-0.00002732,0.00009153,0.00001320,0.00043920,0.00004690,-0.00027
 130,-0.00023528,0.00000574,0.00009407,0.00013243,-0.00001745,0.0000019
 4,-0.00002016,-0.00001198,-0.00000483,-0.00002392,-0.00001732,0.000008
 06,-0.00001184,0.00002028,0.00000449,0.00001673,0.00001220,-0.00001730
 ,0.00015728,0.00008266,0.00024413,0.00181011,0.00204451,-0.00052060,-0
 .00035724,-0.00145720,-0.00024501,-0.00008297,-0.00006537,0.00013208,0
 .00007908,-0.00003216,0.00000860,0.00003860,-0.00004127,0.00000831,-0.
 00007345,0.00003483,0.00001766,-0.00021356,0.00000394,-0.00008446,0.00
 000716,-0.00001483,-0.00000846,-0.00002053,0.00004590,0.00007385,0.000
 02614,-0.00001679,-0.00001950,-0.00230677,-0.00011700,0.00220594,-0.00
 425968,0.00251647,0.00480600,0.00368197,0.00031620,0.00006243,-0.00346
 012,0.00010702,0.00162150,0.00022649,0.00172720,0.00212626,-0.00413587
 ,0.00003948,0.00192424,-0.00086041,0.02396704,0.04494716,-0.00242239,-
 0.00516514,-0.00581746,-0.00027277,0.00018057,0.00007468,-0.00005498,0
 .00007418,-0.00006391,0.00011928,0.00012459,-0.00011367,-0.00002703,-0
 .00005121,0.00007019,0.00039538,-0.00202087,-0.00343736,-0.00035796,0.
 00025662,-0.00012397,0.00032555,-0.00009101,0.00015808,0.00044053,0.00
 024153,0.00039185,-0.00200615,0.00157451,0.00328054,-0.00020310,-0.000
 09032,-0.00009320,-0.13332880,0.01204729,0.03592983,0.01207523,-0.0476
 0491,-0.06800959,0.13502814,0.00010082,0.00015018,-0.00002122,0.000131
 55,-0.00004445,-0.00006124,0.00002373,-0.00009803,-0.00001360,-0.00043
 506,-0.00006324,0.00025616,0.00020904,-0.00000263,-0.00008922,-0.00012
 719,0.00001689,0.00000113,0.00001971,0.00001181,0.00000277,0.00002457,
 0.00001749,-0.00000965,0.00001135,-0.00002005,-0.00000451,-0.00001800,
 -0.00001206,0.00001412,-0.00015885,-0.00010053,-0.00021284,-0.00161949
 ,-0.00184186,0.00062955,0.00029765,0.00130388,0.00028514,0.00011451,0.
 00006304,-0.00012386,-0.00011655,0.00004691,-0.00001294,-0.00003674,0.
 00004008,-0.00000667,0.00007184,-0.00004320,-0.00003420,0.00021237,0.0
 0000255,0.00007990,-0.00000849,0.00001242,0.00000687,0.00001817,-0.000
 04695,-0.00007225,-0.00002472,0.00001420,0.00001698,0.00214433,0.00031
 079,-0.00192858,0.00649426,-0.00121867,-0.00228687,-0.00546839,0.00041
 230,0.00142366,0.00490441,-0.00009112,-0.00237178,0.00298088,-0.001583
 07,-0.00224193,-0.00968780,-0.00176021,-0.00091936,0.02102975,0.002474
 23,-0.03603304,-0.00360224,0.00785000,0.00548737,0.00029098,-0.0001612
 7,-0.00005274,0.00004464,-0.00006506,0.00006735,-0.00009672,-0.0001655
 0,0.00012833,0.00001890,0.00004074,-0.00008503,-0.00062593,0.00128608,
 0.00370231,0.00024217,-0.00018651,0.00009620,-0.00027568,0.00005258,-0
 .00012177,-0.00030065,0.00062111,0.00057440,0.00080087,0.00135120,0.00
 140402,0.00009660,0.00002457,0.00006301,0.00453163,-0.19622100,-0.1730
 3562,-0.03357278,-0.02060665,-0.06452980,0.01136055,0.20822900,0.00018
 550,0.00027016,-0.00003913,0.00023446,-0.00008001,-0.00011075,0.000048
 55,-0.00017052,-0.00002652,-0.00080769,-0.00011782,0.00047924,0.000393
 87,-0.00001527,-0.00016268,-0.00023109,0.00003273,-0.00000003,0.000036
 80,0.00002197,0.00000501,0.00004397,0.00003220,-0.00001681,0.00002132,
 -0.00003722,-0.00000871,-0.00003366,-0.00002405,0.00002765,-0.00028394
 ,-0.00015220,-0.00038553,-0.00290824,-0.00316853,0.00113964,0.00056854
 ,0.00234751,0.00048133,0.00020554,0.00011420,-0.00022594,-0.00020991,0
 .00008591,-0.00002429,-0.00006837,0.00007264,-0.00001495,0.00013194,-0
 .00007804,-0.00006196,0.00037568,0.00000002,0.00015110,-0.00001455,0.0
 0002402,0.00001143,0.00003422,-0.00008350,-0.00013036,-0.00004547,0.00
 002862,0.00003088,0.00379144,0.00004690,-0.00333527,0.01087132,-0.0004
 7381,-0.00593274,-0.00987271,-0.00005977,0.00237891,0.00896839,-0.0001
 6530,-0.00426248,0.00442520,-0.00215029,-0.00480846,-0.01329334,-0.004
 22298,-0.00118226,0.04050428,-0.03741328,-0.05151090,-0.00234415,0.005
 75090,0.01634655,0.00049149,-0.00027829,-0.00011106,0.00010133,-0.0001
 2172,0.00013321,-0.00018231,-0.00030004,0.00022466,0.00004916,0.000077
 40,-0.00015625,-0.00139726,0.00400043,0.00526626,0.00064471,-0.0004950
 9,0.00025749,-0.00059151,0.00015439,-0.00026680,-0.00049127,0.00043405
 ,0.00096364,0.00206632,0.00121859,0.00116824,0.00021393,0.00014221,0.0
 0010202,0.02405207,-0.17584669,-0.36681405,-0.04622056,-0.05942988,-0.
 04631935,-0.01946400,0.27002944,0.45674003\\-0.00000029,-0.00000252,0.
 00000281,-0.00000471,0.00000308,0.00000583,0.00000610,0.00000424,-0.00
 000013,-0.00000680,0.00000200,0.00000641,-0.00000149,-0.00000267,0.000
 00524,0.00000587,0.00000492,0.00000072,0.00000170,0.00000269,0.0000041
 8,0.00000098,0.00000172,0.00000387,0.00000119,0.00000313,0.00000132,0.
 00000036,0.00000099,0.00000297,0.00000432,0.00000880,-0.00000570,-0.00
 001130,0.00000906,0.00000224,0.00000021,-0.00001395,0.00000067,0.00000
 681,-0.00000230,0.00000580,-0.00000151,0.00000070,-0.00000202,0.000000
 29,-0.00000027,-0.00000211,-0.00000113,0.00000156,-0.00000284,0.000002
 06,0.00000048,0.00000046,0.00000145,0.00000299,-0.00000141,0.00000176,
 0.00000179,-0.00000102,0.00000245,0.00000200,-0.00000216,-0.00000024,0
 .00000741,0.00000146,-0.00002007,0.00000520,0.00000348,0.00001614,-0.0
 0001834,-0.00000651,-0.00001069,0.00000452,0.00000594,-0.00000850,0.00
 000094,0.00000081,0.00000322,-0.00000064,0.00000065,-0.00000670,-0.000
 00329,0.00000400,0.00000871,0.00000057,-0.00000655,0.00000841,-0.00000
 498,-0.00000447,-0.00000198,0.00000100,0.00000151,0.00000014,0.0000016
 8,0.00000236,-0.00000170,0.00000064,0.00000028,0.00001400,0.00000444,-
 0.00001538,0.00000134,0.00000111,-0.00000161,0.00000115,-0.00000664,-0
 .00000019,-0.00000160,-0.00000516,-0.00000105,-0.00000390,-0.00000419,
 -0.00000035,-0.00000152,-0.00000305,0.00000207,0.00000920,-0.00000174,
 -0.00001125,-0.00000766,-0.00000510,-0.00000354,-0.00000604,-0.0000028
 4,0.00000324\\\@


 SCIENCE AND PEACE WILL TRIUMPH OVER IGNORANCE AND WAR

                          -- PASTEUR
 Job cpu time:       2 days  6 hours 25 minutes 46.0 seconds.
 Elapsed time:       0 days  2 hours 16 minutes  3.1 seconds.
 File lengths (MBytes):  RWF=   2465 Int=      0 D2E=      0 Chk=     70 Scr=      1
 Normal termination of Gaussian 16 at Sat Mar  9 03:54:23 2024.
