 Entering Gaussian System, Link 0=/s/ls4/groups/g0130/bin/g16/g16
 Input=sp1_s1_b3lyp.gjf
 Output=sp1_s1_b3lyp.log
 Initial command:
 /s/ls4/groups/g0130/bin/g16/l1.exe "/dev/shm/scratch_artd/Gau-15817.inp" -scrdir="/dev/shm/scratch_artd/"
 Entering Link 1 = /s/ls4/groups/g0130/bin/g16/l1.exe PID=     15818.
  
 Copyright (c) 1988,1990,1992,1993,1995,1998,2003,2009,2016,
            Gaussian, Inc.  All Rights Reserved.
  
 This is part of the Gaussian(R) 16 program.  It is based on
 the Gaussian(R) 09 system (copyright 2009, Gaussian, Inc.),
 the Gaussian(R) 03 system (copyright 2003, Gaussian, Inc.),
 the Gaussian(R) 98 system (copyright 1998, Gaussian, Inc.),
 the Gaussian(R) 94 system (copyright 1995, Gaussian, Inc.),
 the Gaussian 92(TM) system (copyright 1992, Gaussian, Inc.),
 the Gaussian 90(TM) system (copyright 1990, Gaussian, Inc.),
 the Gaussian 88(TM) system (copyright 1988, Gaussian, Inc.),
 the Gaussian 86(TM) system (copyright 1986, Carnegie Mellon
 University), and the Gaussian 82(TM) system (copyright 1983,
 Carnegie Mellon University). Gaussian is a federally registered
 trademark of Gaussian, Inc.
  
 This software contains proprietary and confidential information,
 including trade secrets, belonging to Gaussian, Inc.
  
 This software is provided under written license and may be
 used, copied, transmitted, or stored only in accord with that
 written license.
  
 The following legend is applicable only to US Government
 contracts under FAR:
  
                    RESTRICTED RIGHTS LEGEND
  
 Use, reproduction and disclosure by the US Government is
 subject to restrictions as set forth in subparagraphs (a)
 and (c) of the Commercial Computer Software - Restricted
 Rights clause in FAR 52.227-19.
  
 Gaussian, Inc.
 340 Quinnipiac St., Bldg. 40, Wallingford CT 06492
  
  
 ---------------------------------------------------------------
 Warning -- This program may not be used in any manner that
 competes with the business of Gaussian, Inc. or will provide
 assistance to any competitor of Gaussian, Inc.  The licensee
 of this program is prohibited from giving any competitor of
 Gaussian, Inc. access to this program.  By using this program,
 the user acknowledges that Gaussian, Inc. is engaged in the
 business of creating and licensing software in the field of
 computational chemistry and represents and warrants to the
 licensee that it is not a competitor of Gaussian, Inc. and that
 it will not use this program in any manner prohibited above.
 ---------------------------------------------------------------
  

 Cite this work as:
 Gaussian 16, Revision A.03,
 M. J. Frisch, G. W. Trucks, H. B. Schlegel, G. E. Scuseria, 
 M. A. Robb, J. R. Cheeseman, G. Scalmani, V. Barone, 
 G. A. Petersson, H. Nakatsuji, X. Li, M. Caricato, A. V. Marenich, 
 J. Bloino, B. G. Janesko, R. Gomperts, B. Mennucci, H. P. Hratchian, 
 J. V. Ortiz, A. F. Izmaylov, J. L. Sonnenberg, D. Williams-Young, 
 F. Ding, F. Lipparini, F. Egidi, J. Goings, B. Peng, A. Petrone, 
 T. Henderson, D. Ranasinghe, V. G. Zakrzewski, J. Gao, N. Rega, 
 G. Zheng, W. Liang, M. Hada, M. Ehara, K. Toyota, R. Fukuda, 
 J. Hasegawa, M. Ishida, T. Nakajima, Y. Honda, O. Kitao, H. Nakai, 
 T. Vreven, K. Throssell, J. A. Montgomery, Jr., J. E. Peralta, 
 F. Ogliaro, M. J. Bearpark, J. J. Heyd, E. N. Brothers, K. N. Kudin, 
 V. N. Staroverov, T. A. Keith, R. Kobayashi, J. Normand, 
 K. Raghavachari, A. P. Rendell, J. C. Burant, S. S. Iyengar, 
 J. Tomasi, M. Cossi, J. M. Millam, M. Klene, C. Adamo, R. Cammi, 
 J. W. Ochterski, R. L. Martin, K. Morokuma, O. Farkas, 
 J. B. Foresman, and D. J. Fox, Gaussian, Inc., Wallingford CT, 2016.
 
 ******************************************
 Gaussian 16:  ES64L-G16RevA.03 25-Dec-2016
                 7-May-2024 
 ******************************************
 %nprocshared=24
 Will use up to   24 processors via shared memory.
 %mem=20GB
 %oldchk=sp1_gs_b3lyp.chk
 %chk=sp1_s1_b3lyp.chk
 Copying data from "sp1_gs_b3lyp.chk" to current chk file "sp1_s1_b3lyp.chk"
 IOpt=  2 FromEx=T IUOpen= 4 IOptOp= 5 NList=   0 IFRang= 0 IUIn= 4 IUOut= 2.
 ----------------------------------------------------------------------
 #p CAM-B3LYP/def2TZVP EmpiricalDispersion=GD3BJ SCRF(PCM,Solvent=aceto
 nitrile) TD(Singlets,NStates=5, root=1) opt guess=(read) geom=(allchec
 k) gfinput
 ----------------------------------------------------------------------
 1/18=20,19=15,26=3,29=7,38=1/1,3;
 2/9=110,12=2,40=1/2;
 3/5=44,7=101,11=9,14=-4,24=10,25=1,30=1,70=2201,71=1,72=2,74=-40,116=-2,124=41/1,2,3,8;
 4/5=1/1;
 5/5=2,38=6,53=2/2;
 8/6=1,10=1,107=1,108=5/1;
 9/8=1,15=2,41=5,42=1,48=1,70=2/14;
 10/5=4,28=1/2;
 6/7=2,8=2,9=2,10=2/1;
 7/12=6,13=5,14=1/1,2,3,16;
 1/18=20,19=15,26=3/3(2);
 2/9=110/2;
 99//99;
 2/9=110/2;
 3/5=44,7=101,11=9,14=-2,25=1,30=1,70=2205,71=1,72=2,74=-40,124=41/1,2,3,8;
 4/5=5,16=3,69=1/1;
 5/5=2,38=5,53=2/2;
 8/6=1,10=1,107=1,108=5/1;
 9/8=1,15=2,41=5,42=1,48=1,49=4,70=2/14;
 10/5=4,28=1/2;
 7/12=6,13=5,14=1/1,2,3,16;
 1/18=20,19=15,26=3/3(-8);
 2/9=110/2;
 6/7=2,8=2,9=2,10=2/1;
 99//99;
 Leave Link    1 at Tue May  7 19:42:52 2024, MaxMem=  2684354560 cpu:              65.2 elap:               2.8
 (Enter /s/ls4/groups/g0130/bin/g16/l101.exe)
 Structure from the checkpoint file:  "sp1_s1_b3lyp.chk"
 -----
 TITLE
 -----
 Charge =  0 Multiplicity = 1
 Redundant internal coordinates found in file.  (old form).
 C,0,-5.7743800878,1.7534681175,-1.470733373
 C,0,-5.0272881381,1.0521143374,-0.5267027885
 C,0,-3.9198762905,1.6767003224,0.0148436999
 C,0,-3.5528866976,2.9631207082,-0.3752640955
 C,0,-4.2943490363,3.6451972434,-1.3083993423
 C,0,-5.4185803386,3.0317867423,-1.8630754888
 H,0,-5.3084110662,0.0489693271,-0.2384140799
 H,0,-6.0089069943,3.5546770217,-2.6031087087
 H,0,-6.6438295537,1.2814289358,-1.9094472072
 H,0,-4.0123346995,4.6445458415,-1.6157168515
 N,0,-3.0340844982,1.1959523012,0.9763679222
 C,0,-1.8338734953,1.9823865598,0.9169866758
 C,0,-2.341193777,3.3823269993,0.4245411939
 C,0,-2.9510785861,-0.2155443689,1.2689912862
 H,0,-2.2311447631,-0.3748007964,2.0687691359
 H,0,-2.6433828275,-0.8032189345,0.3984112455
 C,0,-2.8020073268,4.2357432725,1.6117174547
 H,0,-3.5216292624,3.7025326823,2.232236653
 H,0,-3.2825608426,5.13787367,1.2353618043
 H,0,-1.9581997278,4.5352657515,2.2334422094
 C,0,-1.2879522148,4.1396172739,-0.3688379304
 H,0,-1.0049372868,3.61095157,-1.2756501459
 H,0,-0.3940114255,4.3041126062,0.2350748329
 H,0,-1.6761766449,5.117745713,-0.6518298645
 O,0,-1.0227664363,1.405166912,-0.1580104528
 C,0,0.3025690537,1.2666621404,-0.0846091308
 C,0,-1.0875181944,1.9995564359,2.2096034903
 C,0,0.2172024596,1.7861800276,2.2954329884
 C,0,0.9963619048,1.4591735749,1.1155303323
 H,0,-1.6770486309,2.2192311066,3.0873223501
 H,0,0.7244159005,1.8338288083,3.2500964868
 C,0,2.3672520443,1.2921247788,1.130813965
 C,0,0.9731888029,0.8943874007,-1.244819182
 C,0,2.3392906674,0.733541042,-1.2226830443
 C,0,3.0238755493,0.9386696989,-0.0340454154
 H,0,2.9241410753,1.4307076337,2.0452864284
 H,0,0.4078901658,0.7449479573,-2.1533823716
 H,0,2.8793705345,0.455518483,-2.1140071083
 N,0,4.4644276589,0.772835236,-0.0094607603
 O,0,5.0505829117,0.95855114,1.041935201
 O,0,5.0277175444,0.4549626716,-1.041364249
 H,0,-3.9189574838,-0.5778498122,1.6109823288
 Recover connectivity data from disk.
 ITRead=  0  0  0  0  0  0  0  0  0  0  0  0  0  0  0  0  0  0  0  0
 ITRead=  0  0  0  0  0  0  0  0  0  0  0  0  0  0  0  0  0  0  0  0
 ITRead=  0  0
 MicOpt= -1 -1 -1 -1 -1 -1 -1 -1 -1 -1 -1 -1 -1 -1 -1 -1 -1 -1 -1 -1
 MicOpt= -1 -1 -1 -1 -1 -1 -1 -1 -1 -1 -1 -1 -1 -1 -1 -1 -1 -1 -1 -1
 MicOpt= -1 -1
 NAtoms=     42 NQM=       42 NQMF=       0 NMMI=      0 NMMIF=      0
                NMic=       0 NMicF=      0.
                    Isotopes and Nuclear Properties:
 (Nuclear quadrupole moments (NQMom) in fm**2, nuclear magnetic moments (NMagM)
  in nuclear magnetons)

  Atom         1           2           3           4           5           6           7           8           9          10
 IAtWgt=          12          12          12          12          12          12           1           1           1           1
 AtmWgt=  12.0000000  12.0000000  12.0000000  12.0000000  12.0000000  12.0000000   1.0078250   1.0078250   1.0078250   1.0078250
 NucSpn=           0           0           0           0           0           0           1           1           1           1
 AtZEff=   3.6000000   3.6000000   3.6000000   3.6000000   3.6000000   3.6000000   1.0000000   1.0000000   1.0000000   1.0000000
 NQMom=    0.0000000   0.0000000   0.0000000   0.0000000   0.0000000   0.0000000   0.0000000   0.0000000   0.0000000   0.0000000
 NMagM=    0.0000000   0.0000000   0.0000000   0.0000000   0.0000000   0.0000000   2.7928460   2.7928460   2.7928460   2.7928460
 AtZNuc=   6.0000000   6.0000000   6.0000000   6.0000000   6.0000000   6.0000000   1.0000000   1.0000000   1.0000000   1.0000000

  Atom        11          12          13          14          15          16          17          18          19          20
 IAtWgt=          14          12          12          12           1           1          12           1           1           1
 AtmWgt=  14.0030740  12.0000000  12.0000000  12.0000000   1.0078250   1.0078250  12.0000000   1.0078250   1.0078250   1.0078250
 NucSpn=           2           0           0           0           1           1           0           1           1           1
 AtZEff=   4.5500000   3.6000000   3.6000000   3.6000000   1.0000000   1.0000000   3.6000000   1.0000000   1.0000000   1.0000000
 NQMom=    2.0440000   0.0000000   0.0000000   0.0000000   0.0000000   0.0000000   0.0000000   0.0000000   0.0000000   0.0000000
 NMagM=    0.4037610   0.0000000   0.0000000   0.0000000   2.7928460   2.7928460   0.0000000   2.7928460   2.7928460   2.7928460
 AtZNuc=   7.0000000   6.0000000   6.0000000   6.0000000   1.0000000   1.0000000   6.0000000   1.0000000   1.0000000   1.0000000

  Atom        21          22          23          24          25          26          27          28          29          30
 IAtWgt=          12           1           1           1          16          12          12          12          12           1
 AtmWgt=  12.0000000   1.0078250   1.0078250   1.0078250  15.9949146  12.0000000  12.0000000  12.0000000  12.0000000   1.0078250
 NucSpn=           0           1           1           1           0           0           0           0           0           1
 AtZEff=   3.6000000   1.0000000   1.0000000   1.0000000   5.6000000   3.6000000   3.6000000   3.6000000   3.6000000   1.0000000
 NQMom=    0.0000000   0.0000000   0.0000000   0.0000000   0.0000000   0.0000000   0.0000000   0.0000000   0.0000000   0.0000000
 NMagM=    0.0000000   2.7928460   2.7928460   2.7928460   0.0000000   0.0000000   0.0000000   0.0000000   0.0000000   2.7928460
 AtZNuc=   6.0000000   1.0000000   1.0000000   1.0000000   8.0000000   6.0000000   6.0000000   6.0000000   6.0000000   1.0000000

  Atom        31          32          33          34          35          36          37          38          39          40
 IAtWgt=           1          12          12          12          12           1           1           1          14          16
 AtmWgt=   1.0078250  12.0000000  12.0000000  12.0000000  12.0000000   1.0078250   1.0078250   1.0078250  14.0030740  15.9949146
 NucSpn=           1           0           0           0           0           1           1           1           2           0
 AtZEff=   1.0000000   3.6000000   3.6000000   3.6000000   3.6000000   1.0000000   1.0000000   1.0000000   4.5500000   5.6000000
 NQMom=    0.0000000   0.0000000   0.0000000   0.0000000   0.0000000   0.0000000   0.0000000   0.0000000   2.0440000   0.0000000
 NMagM=    2.7928460   0.0000000   0.0000000   0.0000000   0.0000000   2.7928460   2.7928460   2.7928460   0.4037610   0.0000000
 AtZNuc=   1.0000000   6.0000000   6.0000000   6.0000000   6.0000000   1.0000000   1.0000000   1.0000000   7.0000000   8.0000000

  Atom        41          42
 IAtWgt=          16           1
 AtmWgt=  15.9949146   1.0078250
 NucSpn=           0           1
 AtZEff=   5.6000000   1.0000000
 NQMom=    0.0000000   0.0000000
 NMagM=    0.0000000   2.7928460
 AtZNuc=   8.0000000   1.0000000
 Leave Link  101 at Tue May  7 19:42:53 2024, MaxMem=  2684354560 cpu:               7.0 elap:               0.3
 (Enter /s/ls4/groups/g0130/bin/g16/l103.exe)

 GradGradGradGradGradGradGradGradGradGradGradGradGradGradGradGradGradGrad
 Berny optimization.
 Initialization pass.
                           ----------------------------
                           !    Initial Parameters    !
                           ! (Angstroms and Degrees)  !
 --------------------------                            --------------------------
 ! Name  Definition              Value          Derivative Info.                !
 --------------------------------------------------------------------------------
 ! R1    R(1,2)                  1.3933         estimate D2E/DX2                !
 ! R2    R(1,6)                  1.3837         estimate D2E/DX2                !
 ! R3    R(1,9)                  1.0822         estimate D2E/DX2                !
 ! R4    R(2,3)                  1.3819         estimate D2E/DX2                !
 ! R5    R(2,7)                  1.0809         estimate D2E/DX2                !
 ! R6    R(3,4)                  1.3935         estimate D2E/DX2                !
 ! R7    R(3,11)                 1.3929         estimate D2E/DX2                !
 ! R8    R(4,5)                  1.3732         estimate D2E/DX2                !
 ! R9    R(4,13)                 1.5112         estimate D2E/DX2                !
 ! R10   R(5,6)                  1.3956         estimate D2E/DX2                !
 ! R11   R(5,10)                 1.0829         estimate D2E/DX2                !
 ! R12   R(6,8)                  1.0815         estimate D2E/DX2                !
 ! R13   R(11,12)                1.4361         estimate D2E/DX2                !
 ! R14   R(11,14)                1.4439         estimate D2E/DX2                !
 ! R15   R(12,13)                1.5683         estimate D2E/DX2                !
 ! R16   R(12,25)                1.4652         estimate D2E/DX2                !
 ! R17   R(12,27)                1.4927         estimate D2E/DX2                !
 ! R18   R(13,17)                1.533          estimate D2E/DX2                !
 ! R19   R(13,21)                1.5206         estimate D2E/DX2                !
 ! R20   R(14,15)                1.0878         estimate D2E/DX2                !
 ! R21   R(14,16)                1.0945         estimate D2E/DX2                !
 ! R22   R(14,42)                1.0886         estimate D2E/DX2                !
 ! R23   R(17,18)                1.0896         estimate D2E/DX2                !
 ! R24   R(17,19)                1.0892         estimate D2E/DX2                !
 ! R25   R(17,20)                1.0901         estimate D2E/DX2                !
 ! R26   R(21,22)                1.0871         estimate D2E/DX2                !
 ! R27   R(21,23)                1.0913         estimate D2E/DX2                !
 ! R28   R(21,24)                1.0897         estimate D2E/DX2                !
 ! R29   R(25,26)                1.3346         estimate D2E/DX2                !
 ! R30   R(26,29)                1.3996         estimate D2E/DX2                !
 ! R31   R(26,33)                1.3908         estimate D2E/DX2                !
 ! R32   R(27,28)                1.3248         estimate D2E/DX2                !
 ! R33   R(27,30)                1.0799         estimate D2E/DX2                !
 ! R34   R(28,29)                1.4513         estimate D2E/DX2                !
 ! R35   R(28,31)                1.0821         estimate D2E/DX2                !
 ! R36   R(29,32)                1.3811         estimate D2E/DX2                !
 ! R37   R(32,35)                1.3831         estimate D2E/DX2                !
 ! R38   R(32,36)                1.0796         estimate D2E/DX2                !
 ! R39   R(33,34)                1.3757         estimate D2E/DX2                !
 ! R40   R(33,37)                1.0805         estimate D2E/DX2                !
 ! R41   R(34,35)                1.3869         estimate D2E/DX2                !
 ! R42   R(34,38)                1.0786         estimate D2E/DX2                !
 ! R43   R(35,39)                1.4503         estimate D2E/DX2                !
 ! R44   R(39,40)                1.218          estimate D2E/DX2                !
 ! R45   R(39,41)                1.2179         estimate D2E/DX2                !
 ! A1    A(2,1,6)              121.2843         estimate D2E/DX2                !
 ! A2    A(2,1,9)              119.0707         estimate D2E/DX2                !
 ! A3    A(6,1,9)              119.6426         estimate D2E/DX2                !
 ! A4    A(1,2,3)              117.885          estimate D2E/DX2                !
 ! A5    A(1,2,7)              120.5576         estimate D2E/DX2                !
 ! A6    A(3,2,7)              121.5559         estimate D2E/DX2                !
 ! A7    A(2,3,4)              121.2374         estimate D2E/DX2                !
 ! A8    A(2,3,11)             128.6169         estimate D2E/DX2                !
 ! A9    A(4,3,11)             110.1446         estimate D2E/DX2                !
 ! A10   A(3,4,5)              120.4361         estimate D2E/DX2                !
 ! A11   A(3,4,13)             108.6084         estimate D2E/DX2                !
 ! A12   A(5,4,13)             130.9046         estimate D2E/DX2                !
 ! A13   A(4,5,6)              119.1237         estimate D2E/DX2                !
 ! A14   A(4,5,10)             120.704          estimate D2E/DX2                !
 ! A15   A(6,5,10)             120.1719         estimate D2E/DX2                !
 ! A16   A(1,6,5)              120.032          estimate D2E/DX2                !
 ! A17   A(1,6,8)              120.0231         estimate D2E/DX2                !
 ! A18   A(5,6,8)              119.9443         estimate D2E/DX2                !
 ! A19   A(3,11,12)            108.295          estimate D2E/DX2                !
 ! A20   A(3,11,14)            120.9199         estimate D2E/DX2                !
 ! A21   A(12,11,14)           119.7126         estimate D2E/DX2                !
 ! A22   A(11,12,13)           103.3825         estimate D2E/DX2                !
 ! A23   A(11,12,25)           106.0963         estimate D2E/DX2                !
 ! A24   A(11,12,27)           112.8519         estimate D2E/DX2                !
 ! A25   A(13,12,25)           107.4791         estimate D2E/DX2                !
 ! A26   A(13,12,27)           115.0475         estimate D2E/DX2                !
 ! A27   A(25,12,27)           111.2899         estimate D2E/DX2                !
 ! A28   A(4,13,12)            100.2495         estimate D2E/DX2                !
 ! A29   A(4,13,17)            108.8612         estimate D2E/DX2                !
 ! A30   A(4,13,21)            114.6699         estimate D2E/DX2                !
 ! A31   A(12,13,17)           110.5484         estimate D2E/DX2                !
 ! A32   A(12,13,21)           112.6011         estimate D2E/DX2                !
 ! A33   A(17,13,21)           109.5734         estimate D2E/DX2                !
 ! A34   A(11,14,15)           109.2788         estimate D2E/DX2                !
 ! A35   A(11,14,16)           112.324          estimate D2E/DX2                !
 ! A36   A(11,14,42)           109.7496         estimate D2E/DX2                !
 ! A37   A(15,14,16)           108.6713         estimate D2E/DX2                !
 ! A38   A(15,14,42)           107.983          estimate D2E/DX2                !
 ! A39   A(16,14,42)           108.7318         estimate D2E/DX2                !
 ! A40   A(13,17,18)           111.5386         estimate D2E/DX2                !
 ! A41   A(13,17,19)           109.0331         estimate D2E/DX2                !
 ! A42   A(13,17,20)           111.2211         estimate D2E/DX2                !
 ! A43   A(18,17,19)           108.1015         estimate D2E/DX2                !
 ! A44   A(18,17,20)           108.717          estimate D2E/DX2                !
 ! A45   A(19,17,20)           108.1202         estimate D2E/DX2                !
 ! A46   A(13,21,22)           111.9216         estimate D2E/DX2                !
 ! A47   A(13,21,23)           110.7152         estimate D2E/DX2                !
 ! A48   A(13,21,24)           109.6178         estimate D2E/DX2                !
 ! A49   A(22,21,23)           108.7627         estimate D2E/DX2                !
 ! A50   A(22,21,24)           108.2167         estimate D2E/DX2                !
 ! A51   A(23,21,24)           107.4722         estimate D2E/DX2                !
 ! A52   A(12,25,26)           123.3874         estimate D2E/DX2                !
 ! A53   A(25,26,29)           121.6805         estimate D2E/DX2                !
 ! A54   A(25,26,33)           117.4345         estimate D2E/DX2                !
 ! A55   A(29,26,33)           120.872          estimate D2E/DX2                !
 ! A56   A(12,27,28)           123.1378         estimate D2E/DX2                !
 ! A57   A(12,27,30)           115.6713         estimate D2E/DX2                !
 ! A58   A(28,27,30)           121.18           estimate D2E/DX2                !
 ! A59   A(27,28,29)           120.8203         estimate D2E/DX2                !
 ! A60   A(27,28,31)           120.7759         estimate D2E/DX2                !
 ! A61   A(29,28,31)           118.3945         estimate D2E/DX2                !
 ! A62   A(26,29,28)           117.5176         estimate D2E/DX2                !
 ! A63   A(26,29,32)           119.0064         estimate D2E/DX2                !
 ! A64   A(28,29,32)           123.4468         estimate D2E/DX2                !
 ! A65   A(29,32,35)           119.5261         estimate D2E/DX2                !
 ! A66   A(29,32,36)           120.3875         estimate D2E/DX2                !
 ! A67   A(35,32,36)           120.0856         estimate D2E/DX2                !
 ! A68   A(26,33,34)           119.7803         estimate D2E/DX2                !
 ! A69   A(26,33,37)           119.0924         estimate D2E/DX2                !
 ! A70   A(34,33,37)           121.125          estimate D2E/DX2                !
 ! A71   A(33,34,35)           119.1202         estimate D2E/DX2                !
 ! A72   A(33,34,38)           120.934          estimate D2E/DX2                !
 ! A73   A(35,34,38)           119.9454         estimate D2E/DX2                !
 ! A74   A(32,35,34)           121.6854         estimate D2E/DX2                !
 ! A75   A(32,35,39)           119.1113         estimate D2E/DX2                !
 ! A76   A(34,35,39)           119.2028         estimate D2E/DX2                !
 ! A77   A(35,39,40)           118.3736         estimate D2E/DX2                !
 ! A78   A(35,39,41)           118.3534         estimate D2E/DX2                !
 ! A79   A(40,39,41)           123.2729         estimate D2E/DX2                !
 ! D1    D(6,1,2,3)              0.3851         estimate D2E/DX2                !
 ! D2    D(6,1,2,7)           -179.1846         estimate D2E/DX2                !
 ! D3    D(9,1,2,3)            179.8192         estimate D2E/DX2                !
 ! D4    D(9,1,2,7)              0.2495         estimate D2E/DX2                !
 ! D5    D(2,1,6,5)             -0.1912         estimate D2E/DX2                !
 ! D6    D(2,1,6,8)            179.5332         estimate D2E/DX2                !
 ! D7    D(9,1,6,5)           -179.6221         estimate D2E/DX2                !
 ! D8    D(9,1,6,8)              0.1023         estimate D2E/DX2                !
 ! D9    D(1,2,3,4)             -0.4635         estimate D2E/DX2                !
 ! D10   D(1,2,3,11)           179.1133         estimate D2E/DX2                !
 ! D11   D(7,2,3,4)            179.1017         estimate D2E/DX2                !
 ! D12   D(7,2,3,11)            -1.3215         estimate D2E/DX2                !
 ! D13   D(2,3,4,5)              0.352          estimate D2E/DX2                !
 ! D14   D(2,3,4,13)           178.0286         estimate D2E/DX2                !
 ! D15   D(11,3,4,5)          -179.2959         estimate D2E/DX2                !
 ! D16   D(11,3,4,13)           -1.6192         estimate D2E/DX2                !
 ! D17   D(2,3,11,12)          161.8871         estimate D2E/DX2                !
 ! D18   D(2,3,11,14)           18.1274         estimate D2E/DX2                !
 ! D19   D(4,3,11,12)          -18.4983         estimate D2E/DX2                !
 ! D20   D(4,3,11,14)         -162.2579         estimate D2E/DX2                !
 ! D21   D(3,4,5,6)             -0.1427         estimate D2E/DX2                !
 ! D22   D(3,4,5,10)          -179.9158         estimate D2E/DX2                !
 ! D23   D(13,4,5,6)          -177.229          estimate D2E/DX2                !
 ! D24   D(13,4,5,10)            2.998          estimate D2E/DX2                !
 ! D25   D(3,4,13,12)           18.6662         estimate D2E/DX2                !
 ! D26   D(3,4,13,17)          -97.355          estimate D2E/DX2                !
 ! D27   D(3,4,13,21)          139.5184         estimate D2E/DX2                !
 ! D28   D(5,4,13,12)         -163.9844         estimate D2E/DX2                !
 ! D29   D(5,4,13,17)           79.9944         estimate D2E/DX2                !
 ! D30   D(5,4,13,21)          -43.1322         estimate D2E/DX2                !
 ! D31   D(4,5,6,1)              0.0648         estimate D2E/DX2                !
 ! D32   D(4,5,6,8)           -179.6598         estimate D2E/DX2                !
 ! D33   D(10,5,6,1)           179.8391         estimate D2E/DX2                !
 ! D34   D(10,5,6,8)             0.1145         estimate D2E/DX2                !
 ! D35   D(3,11,12,13)          29.5944         estimate D2E/DX2                !
 ! D36   D(3,11,12,25)         -83.3596         estimate D2E/DX2                !
 ! D37   D(3,11,12,27)         154.5201         estimate D2E/DX2                !
 ! D38   D(14,11,12,13)        173.8666         estimate D2E/DX2                !
 ! D39   D(14,11,12,25)         60.9127         estimate D2E/DX2                !
 ! D40   D(14,11,12,27)        -61.2076         estimate D2E/DX2                !
 ! D41   D(3,11,14,15)        -177.9406         estimate D2E/DX2                !
 ! D42   D(3,11,14,16)          61.378          estimate D2E/DX2                !
 ! D43   D(3,11,14,42)         -59.705          estimate D2E/DX2                !
 ! D44   D(12,11,14,15)         42.3196         estimate D2E/DX2                !
 ! D45   D(12,11,14,16)        -78.3618         estimate D2E/DX2                !
 ! D46   D(12,11,14,42)        160.5552         estimate D2E/DX2                !
 ! D47   D(11,12,13,4)         -28.5005         estimate D2E/DX2                !
 ! D48   D(11,12,13,17)         86.2471         estimate D2E/DX2                !
 ! D49   D(11,12,13,21)       -150.825          estimate D2E/DX2                !
 ! D50   D(25,12,13,4)          83.4438         estimate D2E/DX2                !
 ! D51   D(25,12,13,17)       -161.8086         estimate D2E/DX2                !
 ! D52   D(25,12,13,21)        -38.8808         estimate D2E/DX2                !
 ! D53   D(27,12,13,4)        -151.9916         estimate D2E/DX2                !
 ! D54   D(27,12,13,17)        -37.244          estimate D2E/DX2                !
 ! D55   D(27,12,13,21)         85.6839         estimate D2E/DX2                !
 ! D56   D(11,12,25,26)       -140.4138         estimate D2E/DX2                !
 ! D57   D(13,12,25,26)        109.5006         estimate D2E/DX2                !
 ! D58   D(27,12,25,26)        -17.3037         estimate D2E/DX2                !
 ! D59   D(11,12,27,28)        132.3542         estimate D2E/DX2                !
 ! D60   D(11,12,27,30)        -48.8367         estimate D2E/DX2                !
 ! D61   D(13,12,27,28)       -109.3401         estimate D2E/DX2                !
 ! D62   D(13,12,27,30)         69.4691         estimate D2E/DX2                !
 ! D63   D(25,12,27,28)         13.2023         estimate D2E/DX2                !
 ! D64   D(25,12,27,30)       -167.9885         estimate D2E/DX2                !
 ! D65   D(4,13,17,18)          56.7524         estimate D2E/DX2                !
 ! D66   D(4,13,17,19)         -62.5554         estimate D2E/DX2                !
 ! D67   D(4,13,17,20)         178.3088         estimate D2E/DX2                !
 ! D68   D(12,13,17,18)        -52.4474         estimate D2E/DX2                !
 ! D69   D(12,13,17,19)       -171.7552         estimate D2E/DX2                !
 ! D70   D(12,13,17,20)         69.1089         estimate D2E/DX2                !
 ! D71   D(21,13,17,18)       -177.1195         estimate D2E/DX2                !
 ! D72   D(21,13,17,19)         63.5727         estimate D2E/DX2                !
 ! D73   D(21,13,17,20)        -55.5632         estimate D2E/DX2                !
 ! D74   D(4,13,21,22)         -51.616          estimate D2E/DX2                !
 ! D75   D(4,13,21,23)        -173.1411         estimate D2E/DX2                !
 ! D76   D(4,13,21,24)          68.4624         estimate D2E/DX2                !
 ! D77   D(12,13,21,22)         62.1686         estimate D2E/DX2                !
 ! D78   D(12,13,21,23)        -59.3565         estimate D2E/DX2                !
 ! D79   D(12,13,21,24)       -177.753          estimate D2E/DX2                !
 ! D80   D(17,13,21,22)       -174.3594         estimate D2E/DX2                !
 ! D81   D(17,13,21,23)         64.1155         estimate D2E/DX2                !
 ! D82   D(17,13,21,24)        -54.281          estimate D2E/DX2                !
 ! D83   D(12,25,26,29)         10.8148         estimate D2E/DX2                !
 ! D84   D(12,25,26,33)       -170.4912         estimate D2E/DX2                !
 ! D85   D(25,26,29,28)          1.4417         estimate D2E/DX2                !
 ! D86   D(25,26,29,32)        179.5428         estimate D2E/DX2                !
 ! D87   D(33,26,29,28)       -177.2079         estimate D2E/DX2                !
 ! D88   D(33,26,29,32)          0.8933         estimate D2E/DX2                !
 ! D89   D(25,26,33,34)       -179.7886         estimate D2E/DX2                !
 ! D90   D(25,26,33,37)          0.7534         estimate D2E/DX2                !
 ! D91   D(29,26,33,34)         -1.0835         estimate D2E/DX2                !
 ! D92   D(29,26,33,37)        179.4586         estimate D2E/DX2                !
 ! D93   D(12,27,28,29)         -2.7817         estimate D2E/DX2                !
 ! D94   D(12,27,28,31)        178.3425         estimate D2E/DX2                !
 ! D95   D(30,27,28,29)        178.4728         estimate D2E/DX2                !
 ! D96   D(30,27,28,31)         -0.4029         estimate D2E/DX2                !
 ! D97   D(27,28,29,26)         -5.3437         estimate D2E/DX2                !
 ! D98   D(27,28,29,32)        176.6466         estimate D2E/DX2                !
 ! D99   D(31,28,29,26)        173.5583         estimate D2E/DX2                !
 ! D100  D(31,28,29,32)         -4.4514         estimate D2E/DX2                !
 ! D101  D(26,29,32,35)         -0.0501         estimate D2E/DX2                !
 ! D102  D(26,29,32,36)       -179.7269         estimate D2E/DX2                !
 ! D103  D(28,29,32,35)        177.9316         estimate D2E/DX2                !
 ! D104  D(28,29,32,36)         -1.7452         estimate D2E/DX2                !
 ! D105  D(29,32,35,34)         -0.6124         estimate D2E/DX2                !
 ! D106  D(29,32,35,39)        179.6627         estimate D2E/DX2                !
 ! D107  D(36,32,35,34)        179.0654         estimate D2E/DX2                !
 ! D108  D(36,32,35,39)         -0.6595         estimate D2E/DX2                !
 ! D109  D(26,33,34,35)          0.4192         estimate D2E/DX2                !
 ! D110  D(26,33,34,38)       -179.3434         estimate D2E/DX2                !
 ! D111  D(37,33,34,35)        179.8659         estimate D2E/DX2                !
 ! D112  D(37,33,34,38)          0.1033         estimate D2E/DX2                !
 ! D113  D(33,34,35,32)          0.4272         estimate D2E/DX2                !
 ! D114  D(33,34,35,39)       -179.8482         estimate D2E/DX2                !
 ! D115  D(38,34,35,32)       -179.8078         estimate D2E/DX2                !
 ! D116  D(38,34,35,39)         -0.0831         estimate D2E/DX2                !
 ! D117  D(32,35,39,40)         -0.3694         estimate D2E/DX2                !
 ! D118  D(32,35,39,41)        179.6407         estimate D2E/DX2                !
 ! D119  D(34,35,39,40)        179.8988         estimate D2E/DX2                !
 ! D120  D(34,35,39,41)         -0.0911         estimate D2E/DX2                !
 --------------------------------------------------------------------------------
 Trust Radius=3.00D-01 FncErr=1.00D-07 GrdErr=1.00D-06 EigMax=2.50D+02 EigMin=1.00D-04
 Number of steps in this run=    252 maximum allowed number of steps=    252.
 GradGradGradGradGradGradGradGradGradGradGradGradGradGradGradGradGradGrad

 Leave Link  103 at Tue May  7 19:42:53 2024, MaxMem=  2684354560 cpu:               0.4 elap:               0.0
 (Enter /s/ls4/groups/g0130/bin/g16/l202.exe)
                          Input orientation:                          
 ---------------------------------------------------------------------
 Center     Atomic      Atomic             Coordinates (Angstroms)
 Number     Number       Type             X           Y           Z
 ---------------------------------------------------------------------
      1          6           0       -5.774380    1.753468   -1.470733
      2          6           0       -5.027288    1.052114   -0.526703
      3          6           0       -3.919876    1.676700    0.014844
      4          6           0       -3.552887    2.963121   -0.375264
      5          6           0       -4.294349    3.645197   -1.308399
      6          6           0       -5.418580    3.031787   -1.863075
      7          1           0       -5.308411    0.048969   -0.238414
      8          1           0       -6.008907    3.554677   -2.603109
      9          1           0       -6.643830    1.281429   -1.909447
     10          1           0       -4.012335    4.644546   -1.615717
     11          7           0       -3.034084    1.195952    0.976368
     12          6           0       -1.833873    1.982387    0.916987
     13          6           0       -2.341194    3.382327    0.424541
     14          6           0       -2.951079   -0.215544    1.268991
     15          1           0       -2.231145   -0.374801    2.068769
     16          1           0       -2.643383   -0.803219    0.398411
     17          6           0       -2.802007    4.235743    1.611717
     18          1           0       -3.521629    3.702533    2.232237
     19          1           0       -3.282561    5.137874    1.235362
     20          1           0       -1.958200    4.535266    2.233442
     21          6           0       -1.287952    4.139617   -0.368838
     22          1           0       -1.004937    3.610952   -1.275650
     23          1           0       -0.394011    4.304113    0.235075
     24          1           0       -1.676177    5.117746   -0.651830
     25          8           0       -1.022766    1.405167   -0.158010
     26          6           0        0.302569    1.266662   -0.084609
     27          6           0       -1.087518    1.999556    2.209603
     28          6           0        0.217202    1.786180    2.295433
     29          6           0        0.996362    1.459174    1.115530
     30          1           0       -1.677049    2.219231    3.087322
     31          1           0        0.724416    1.833829    3.250096
     32          6           0        2.367252    1.292125    1.130814
     33          6           0        0.973189    0.894387   -1.244819
     34          6           0        2.339291    0.733541   -1.222683
     35          6           0        3.023876    0.938670   -0.034045
     36          1           0        2.924141    1.430708    2.045286
     37          1           0        0.407890    0.744948   -2.153382
     38          1           0        2.879371    0.455518   -2.114007
     39          7           0        4.464428    0.772835   -0.009461
     40          8           0        5.050583    0.958551    1.041935
     41          8           0        5.027718    0.454963   -1.041364
     42          1           0       -3.918957   -0.577850    1.610982
 ---------------------------------------------------------------------
                    Distance matrix (angstroms):
                    1          2          3          4          5
     1  C    0.000000
     2  C    1.393283   0.000000
     3  C    2.377397   1.381934   0.000000
     4  C    2.756510   2.418417   1.393464   0.000000
     5  C    2.407381   2.805767   2.401288   1.373221   0.000000
     6  C    1.383699   2.420352   2.758433   2.387281   1.395648
     7  H    2.154311   1.080944   2.154455   3.404831   3.886650
     8  H    2.140474   3.396742   3.839859   3.368273   2.150390
     9  H    1.082235   2.139573   3.358431   3.838715   3.386550
    10  H    3.388828   3.888656   3.387534   2.139394   1.082901
    11  N    3.715959   2.500554   1.392937   2.284502   3.578719
    12  C    4.613155   3.625954   2.293189   2.363632   3.710960
    13  C    4.246412   3.681013   2.359926   1.511166   2.624309
    14  C    4.399333   3.023594   2.468207   3.629003   4.832457
    15  H    5.441702   4.073203   3.358434   4.343043   5.641140
    16  H    4.453481   3.159288   2.815415   3.951087   5.042549
    17  C    4.949565   4.433983   3.216883   2.476183   3.332103
    18  H    4.752444   4.111383   3.029757   2.710492   3.624429
    19  H    4.998631   4.779370   3.724991   2.719695   3.118095
    20  H    6.001879   5.400930   4.116036   3.438025   4.335257
    21  C    5.199607   4.851827   3.624941   2.552276   3.188361
    22  H    5.122098   4.825751   3.728749   2.778925   3.289753
    23  H    6.193863   5.711659   4.402672   3.485580   4.246071
    24  H    5.365094   5.270196   4.161663   2.870703   3.074786
    25  O    4.941901   4.036926   2.914936   2.979250   4.128484
    26  C    6.252010   5.352463   4.243473   4.222202   5.318529
    27  C    5.964236   4.889459   3.597702   3.699735   5.036690
    28  C    7.077015   6.000665   4.725304   4.767744   6.066107
    29  C    7.253848   6.256755   5.042641   5.017967   6.216571
    30  H    6.146620   5.064331   3.842491   4.007698   5.310933
    31  H    8.032873   6.925127   5.662243   5.719603   7.017759
    32  C    8.559618   7.581833   6.396974   6.333130   7.474198
    33  C    6.805787   6.045353   5.112812   5.051846   5.942891
    34  C    8.181286   7.406238   6.449666   6.356642   7.245017
    35  C    8.951942   8.067020   6.983034   6.889748   7.906053
    36  H    9.387803   8.365625   7.143093   7.082319   8.261826
    37  H    6.301078   5.681690   4.929394   4.875423   5.588962
    38  H    8.774159   8.086452   7.228627   7.119356   7.892104
    39  N   10.388943   9.509900   8.432919   8.319164   9.308806
    40  O   11.141150  10.199650   9.057582   8.946868  10.003494
    41  O   10.888333  10.085862   9.092175   8.964447   9.856461
    42  H    4.286561   2.907727   2.762364   4.076476   5.147605
                    6          7          8          9         10
     6  C    0.000000
     7  H    3.398362   0.000000
     8  H    1.081457   4.286311   0.000000
     9  H    2.137086   2.468735   2.460071   0.000000
    10  H    2.153997   4.969517   2.479729   4.280374   0.000000
    11  N    4.137457   2.822025   5.217835   4.622282   4.423649
    12  C    4.656190   4.140708   5.682787   5.622788   4.271694
    13  C    3.850503   4.511669   4.759043   5.326720   2.923792
    14  C    5.142331   2.810561   6.209512   5.097039   5.750503
    15  H    6.101146   3.869398   7.179048   6.167746   6.476258
    16  H    5.246266   2.869520   6.271135   5.067104   5.967318
    17  C    4.513330   5.218632   5.339739   5.990507   3.471072
    18  H    4.562883   4.758700   5.439575   5.723934   3.991858
    19  H    4.312597   5.672128   4.967226   6.005008   2.984056
    20  H    5.569214   6.120527   6.384513   7.050256   4.364337
    21  C    4.530135   5.737116   5.255619   6.263237   3.038407
    22  H    4.490072   5.681854   5.177357   6.133961   3.198187
    23  H    5.591721   6.517803   6.335929   7.266073   4.078430
    24  H    4.452407   6.249523   5.002322   6.401289   2.571115
    25  O    4.987617   4.495830   5.954872   5.888904   4.642844
    26  C    6.245811   5.743651   7.170257   7.182110   5.689709
    27  C    6.034096   5.254856   7.056959   6.953767   5.493960
    28  C    7.113844   6.322237   8.117126   8.062850   6.430889
    29  C    7.245460   6.600909   8.203243   8.219161   6.534015
    30  H    6.258254   5.381204   7.275261   7.107467   5.783968
    31  H    8.081834   7.193777   9.086197   9.012052   7.349359
    32  C    8.521091   7.895317   9.445706   9.510147   7.712411
    33  C    6.767971   6.417638   7.594192   7.655749   6.249536
    34  C    8.116440   7.741109   8.919461   9.025978   7.469510
    35  C    8.888282   8.382144   9.748576   9.853889   8.108234
    36  H    9.350922   8.654444  10.291655  10.354142   8.476225
    37  H    6.265913   6.068574   7.019410   7.076303   5.918981
    38  H    8.692302   8.409691   9.425788   9.561136   8.080337
    39  N   10.305950   9.802284  11.142549  11.281046   9.456516
    40  O   11.060776  10.477375  11.930571  12.065413  10.138350
    41  O   10.790754  10.375216  11.569544  11.732929   9.980232
    42  H    5.229476   2.396612   6.261328   4.824445   6.139521
                   11         12         13         14         15
    11  N    0.000000
    12  C    1.436145   0.000000
    13  C    2.358992   1.568346   0.000000
    14  C    1.443898   2.490573   3.745629   0.000000
    15  H    2.074926   2.653443   4.102634   1.087801   0.000000
    16  H    2.117396   2.946833   4.196522   1.094508   1.773014
    17  C    3.114138   2.549029   1.532989   4.466950   4.668179
    18  H    2.845672   2.745415   2.182595   4.074886   4.279804
    19  H    3.958227   3.486711   2.150708   5.363776   5.673590
    20  H    3.726765   2.875014   2.179008   4.948350   4.920403
    21  C    3.677461   2.570023   1.520611   4.941245   5.216465
    22  H    3.875725   2.854298   2.174512   4.990465   5.345554
    23  H    4.144896   2.815780   2.162662   5.294797   5.350675
    24  H    4.458184   3.509492   2.147673   5.810242   6.154487
    25  O    2.318617   1.465161   2.446790   2.895069   3.096290
    26  C    3.501989   2.465734   3.424143   3.823008   3.708254
    27  C    2.440445   1.492715   2.582674   3.043728   2.639183
    28  C    3.557972   2.479017   3.548706   3.885677   3.273472
    29  C    4.041429   2.885031   3.913472   4.290748   3.832613
    30  H    2.710124   2.188846   2.980652   3.295089   2.841386
    31  H    4.438812   3.465590   4.447423   4.651233   3.874134
    32  C    5.404400   4.262821   5.199734   5.529629   4.980327
    33  C    4.591607   3.706312   4.467856   4.790727   4.781052
    34  C    5.824329   4.853154   5.624620   5.924290   5.740293
    35  C    6.147033   5.058807   5.913183   6.223359   5.810531
    36  H    6.057900   4.920987   5.844603   6.150690   5.462361
    37  H    4.673963   3.997990   4.599883   4.890589   5.103421
    38  H    6.713241   5.808005   6.501133   6.774152   6.656006
    39  N    7.574864   6.479963   7.301663   7.589537   7.103999
    40  O    8.088418   6.961292   7.803475   8.090528   7.473672
    41  O    8.343438   7.297232   8.063448   8.333577   7.940562
    42  H    2.081372   3.374021   4.424927   1.088583   1.760542
                   16         17         18         19         20
    16  H    0.000000
    17  C    5.185404   0.000000
    18  H    4.943281   1.089593   0.000000
    19  H    6.033707   1.089227   1.763836   0.000000
    20  H    5.686496   1.090076   1.771372   1.764436   0.000000
    21  C    5.182422   2.494835   3.456291   2.747442   2.716180
    22  H    4.997188   3.457849   4.318263   3.718096   3.751906
    23  H    5.583116   2.774574   3.759328   3.168509   2.548252
    24  H    6.090675   2.677512   3.704911   2.478380   2.956960
    25  O    2.795169   3.782829   4.151564   4.580530   4.048654
    26  C    3.632678   4.618589   5.091732   5.438912   4.600892
    27  C    3.681940   2.880533   2.970781   3.951758   2.681133
    28  C    4.299608   3.947588   4.201817   4.960438   3.506236
    29  C    4.345161   4.731083   5.166424   5.644145   4.409252
    30  H    4.159237   2.740303   2.516711   3.811286   2.484386
    31  H    5.140836   4.570464   4.749420   5.570613   3.940530
    32  C    5.480268   5.968032   6.457718   6.835283   5.517543
    33  C    4.319915   5.794529   6.338690   6.501529   5.826434
    34  C    5.460459   6.836095   7.423056   7.552837   6.698234
    35  C    5.944663   6.893485   7.457788   7.682177   6.549662
    36  H    6.220928   6.391008   6.836965   7.274765   5.788863
    37  H    4.268341   6.055169   6.589544   6.663393   6.261719
    38  H    6.196569   7.774907   8.390813   8.432800   7.677678
    39  N    7.291864   8.211031   8.796899   8.978807   7.774101
    40  O    7.919284   8.528060   9.079046   9.324454   7.958367
    41  O    7.905805   9.090530   9.713625   9.806827   8.727902
    42  H    1.774320   4.941483   4.343443   5.763296   5.511441
                   21         22         23         24         25
    21  C    0.000000
    22  H    1.087149   0.000000
    23  H    1.091283   1.770873   0.000000
    24  H    1.089742   1.763560   1.758564   0.000000
    25  O    2.755357   2.472837   2.992279   3.801847   0.000000
    26  C    3.296121   2.936638   3.132655   4.366694   1.334573
    27  C    3.356843   3.840626   3.112988   4.272871   2.441943
    28  C    3.860375   4.192380   3.310384   4.834312   2.775262
    29  C    3.821808   3.788547   3.286642   4.863247   2.387824
    30  H    3.972949   4.628623   3.758754   4.731030   3.409248
    31  H    4.739512   5.160544   4.055063   5.636664   3.853776
    32  C    4.870081   4.747598   4.183180   5.844870   3.628508
    33  C    4.051126   3.360603   3.960499   5.020710   2.329353
    34  C    5.048495   4.412047   4.727048   5.972529   3.589991
    35  C    5.380521   4.991393   4.804226   6.319559   4.075328
    36  H    5.559489   5.587463   4.747995   6.483179   4.520315
    37  H    4.193359   3.313680   4.360668   5.071425   2.542474
    38  H    5.829646   5.074194   5.571794   6.680369   4.467038
    39  N    6.674897   6.290635   6.011169   7.549696   5.525505
    40  O    7.230940   7.005409   6.441072   8.088080   6.206844
    41  O    7.342796   6.812348   6.770554   8.175297   6.188017
    42  H    5.752945   5.862612   6.176724   6.526116   3.930600
                   26         27         28         29         30
    26  C    0.000000
    27  C    2.780807   0.000000
    28  C    2.437578   1.324837   0.000000
    29  C    1.399551   2.414864   1.451273   0.000000
    30  H    3.858422   1.079904   2.098287   3.407752   0.000000
    31  H    3.408797   2.095995   1.082090   2.184192   2.437635
    32  C    2.396000   3.687775   2.494622   1.381115   4.587354
    33  C    1.390829   4.171444   3.728297   2.427091   5.248468
    34  C    2.393254   5.012625   4.241279   2.792354   6.075722
    35  C    2.741468   4.802395   3.744617   2.388150   5.786317
    36  H    3.381716   4.055120   2.741615   2.140465   4.783153
    37  H    2.136142   4.779742   4.573017   3.397382   5.829706
    38  H    3.378804   6.067443   5.319865   3.870782   7.136208
    39  N    4.191727   6.103539   4.937441   3.710006   7.028503
    40  O    4.889547   6.334306   5.061402   4.085676   7.143805
    41  O    4.888892   7.095821   6.003950   4.681075   8.069237
    42  H    4.909026   3.875360   4.812996   5.343716   3.876777
                   31         32         33         34         35
    31  H    0.000000
    32  C    2.735637   0.000000
    33  C    4.598772   2.783027   0.000000
    34  C    4.881005   2.419038   1.375716   0.000000
    35  C    4.107848   1.383106   2.381859   1.386937   0.000000
    36  H    2.540249   1.079625   3.862467   3.392302   2.139081
    37  H    5.521180   3.863217   1.080454   2.143977   3.372313
    38  H    5.942826   3.389844   2.140472   1.078629   2.140224
    39  N    5.073274   2.442956   3.705352   2.447378   1.450274
    40  O    4.935363   2.705445   4.675308   3.539807   2.294705
    41  O    6.231879   3.535149   4.083343   2.708897   2.294351
    42  H    5.483047   6.576002   5.852878   6.993931   7.294442
                   36         37         38         39         40
    36  H    0.000000
    37  H    4.942733   0.000000
    38  H    4.272320   2.488681   0.000000
    39  N    2.650899   4.588319   2.653717   0.000000
    40  O    2.398208   5.640060   3.863570   1.217991   0.000000
    41  O    3.860638   4.760618   2.401241   1.217852   2.143423
    42  H    7.144993   5.885732   7.820528   8.644729   9.117949
                   41         42
    41  O    0.000000
    42  H    9.388538   0.000000
 Stoichiometry    C19H18N2O3
 Framework group  C1[X(C19H18N2O3)]
 Deg. of freedom   120
 Full point group                 C1      NOp   1
 RotChk:  IX=2 Diff= 3.92D-15
 Largest Abelian subgroup         C1      NOp   1
 Largest concise Abelian subgroup C1      NOp   1
                         Standard orientation:                         
 ---------------------------------------------------------------------
 Center     Atomic      Atomic             Coordinates (Angstroms)
 Number     Number       Type             X           Y           Z
 ---------------------------------------------------------------------
      1          6           0        4.970105   -1.539843   -0.595722
      2          6           0        4.047651   -0.828861   -1.360457
      3          6           0        3.047509   -0.144986   -0.695797
      4          6           0        2.955053   -0.171042    0.694353
      5          6           0        3.867677   -0.876856    1.439121
      6          6           0        4.887218   -1.570186    0.785159
      7          1           0        4.115765   -0.823886   -2.439241
      8          1           0        5.609827   -2.134856    1.358336
      9          1           0        5.759629   -2.084772   -1.096659
     10          1           0        3.799131   -0.901179    2.519576
     11          7           0        2.029801    0.642169   -1.229587
     12          6           0        1.005980    0.791636   -0.233615
     13          6           0        1.798102    0.704348    1.117175
     14          6           0        1.663521    0.537086   -2.622296
     15          1           0        0.879056    1.257741   -2.842713
     16          1           0        1.303849   -0.463156   -2.883255
     17          6           0        2.338815    2.082856    1.513912
     18          1           0        2.905341    2.538981    0.702610
     19          1           0        3.003429    1.970920    2.369584
     20          1           0        1.530618    2.756824    1.798255
     21          6           0        0.957557    0.140876    2.252182
     22          1           0        0.635448   -0.877907    2.051631
     23          1           0        0.075763    0.760436    2.423892
     24          1           0        1.540372    0.138874    3.172976
     25          8           0        0.167388   -0.405917   -0.330189
     26          6           0       -1.162177   -0.382530   -0.217066
     27          6           0        0.198954    2.034390   -0.413811
     28          6           0       -1.125333    2.049403   -0.378710
     29          6           0       -1.878872    0.819589   -0.217684
     30          1           0        0.764765    2.942859   -0.557808
     31          1           0       -1.671616    2.977112   -0.487559
     32          6           0       -3.254939    0.778949   -0.106933
     33          6           0       -1.819110   -1.605016   -0.125548
     34          6           0       -3.189729   -1.637335   -0.011727
     35          6           0       -3.894311   -0.442764    0.000792
     36          1           0       -3.830249    1.692515   -0.109437
     37          1           0       -1.237973   -2.515807   -0.136530
     38          1           0       -3.717288   -2.574497    0.071046
     39          7           0       -5.338987   -0.474617    0.124049
     40          8           0       -5.942409    0.583333    0.135299
     41          8           0       -5.888261   -1.558057    0.211336
     42          1           0        2.522671    0.773788   -3.247474
 ---------------------------------------------------------------------
 Rotational constants (GHZ):           0.6249034           0.1270626           0.1242287
 Leave Link  202 at Tue May  7 19:42:53 2024, MaxMem=  2684354560 cpu:               0.6 elap:               0.1
 (Enter /s/ls4/groups/g0130/bin/g16/l301.exe)
 Standard basis: def2TZVP (5D, 7F)
 Ernie: Thresh=  0.10000D-02 Tol=  0.10000D-05 Strict=F.
 AO basis set in the form of general basis input (Overlap normalization):
      1 0
 S   6 1.00       0.000000000000
      0.1357534968D+05  0.6064550360D-03
      0.2035233368D+04  0.4697908888D-02
      0.4632256236D+03  0.2433247765D-01
      0.1312001960D+03  0.9739996831D-01
      0.4285301589D+02  0.3019558425D+00
      0.1558418577D+02  0.6623360914D+00
 S   2 1.00       0.000000000000
      0.6206713851D+01  0.6559530854D+00
      0.2576489653D+01  0.3758563329D+00
 S   1 1.00       0.000000000000
      0.5769633942D+00  0.1000000000D+01
 S   1 1.00       0.000000000000
      0.2297283136D+00  0.1000000000D+01
 S   1 1.00       0.000000000000
      0.9516444003D-01  0.1000000000D+01
 P   4 1.00       0.000000000000
      0.3469723224D+02  0.1132722000D-01
      0.7958262283D+01  0.7616965920D-01
      0.2378082688D+01  0.3019225220D+00
      0.8143320818D+00  0.7278502735D+00
 P   1 1.00       0.000000000000
      0.2888754725D+00  0.1000000000D+01
 P   1 1.00       0.000000000000
      0.1005682367D+00  0.1000000000D+01
 D   1 1.00       0.000000000000
      0.1097000000D+01  0.1000000000D+01
 D   1 1.00       0.000000000000
      0.3180000000D+00  0.1000000000D+01
 F   1 1.00       0.000000000000
      0.7610000000D+00  0.1000000000D+01
 ****
      2 0
 S   6 1.00       0.000000000000
      0.1357534968D+05  0.6064550360D-03
      0.2035233368D+04  0.4697908888D-02
      0.4632256236D+03  0.2433247765D-01
      0.1312001960D+03  0.9739996831D-01
      0.4285301589D+02  0.3019558425D+00
      0.1558418577D+02  0.6623360914D+00
 S   2 1.00       0.000000000000
      0.6206713851D+01  0.6559530854D+00
      0.2576489653D+01  0.3758563329D+00
 S   1 1.00       0.000000000000
      0.5769633942D+00  0.1000000000D+01
 S   1 1.00       0.000000000000
      0.2297283136D+00  0.1000000000D+01
 S   1 1.00       0.000000000000
      0.9516444003D-01  0.1000000000D+01
 P   4 1.00       0.000000000000
      0.3469723224D+02  0.1132722000D-01
      0.7958262283D+01  0.7616965920D-01
      0.2378082688D+01  0.3019225220D+00
      0.8143320818D+00  0.7278502735D+00
 P   1 1.00       0.000000000000
      0.2888754725D+00  0.1000000000D+01
 P   1 1.00       0.000000000000
      0.1005682367D+00  0.1000000000D+01
 D   1 1.00       0.000000000000
      0.1097000000D+01  0.1000000000D+01
 D   1 1.00       0.000000000000
      0.3180000000D+00  0.1000000000D+01
 F   1 1.00       0.000000000000
      0.7610000000D+00  0.1000000000D+01
 ****
      3 0
 S   6 1.00       0.000000000000
      0.1357534968D+05  0.6064550360D-03
      0.2035233368D+04  0.4697908888D-02
      0.4632256236D+03  0.2433247765D-01
      0.1312001960D+03  0.9739996831D-01
      0.4285301589D+02  0.3019558425D+00
      0.1558418577D+02  0.6623360914D+00
 S   2 1.00       0.000000000000
      0.6206713851D+01  0.6559530854D+00
      0.2576489653D+01  0.3758563329D+00
 S   1 1.00       0.000000000000
      0.5769633942D+00  0.1000000000D+01
 S   1 1.00       0.000000000000
      0.2297283136D+00  0.1000000000D+01
 S   1 1.00       0.000000000000
      0.9516444003D-01  0.1000000000D+01
 P   4 1.00       0.000000000000
      0.3469723224D+02  0.1132722000D-01
      0.7958262283D+01  0.7616965920D-01
      0.2378082688D+01  0.3019225220D+00
      0.8143320818D+00  0.7278502735D+00
 P   1 1.00       0.000000000000
      0.2888754725D+00  0.1000000000D+01
 P   1 1.00       0.000000000000
      0.1005682367D+00  0.1000000000D+01
 D   1 1.00       0.000000000000
      0.1097000000D+01  0.1000000000D+01
 D   1 1.00       0.000000000000
      0.3180000000D+00  0.1000000000D+01
 F   1 1.00       0.000000000000
      0.7610000000D+00  0.1000000000D+01
 ****
      4 0
 S   6 1.00       0.000000000000
      0.1357534968D+05  0.6064550360D-03
      0.2035233368D+04  0.4697908888D-02
      0.4632256236D+03  0.2433247765D-01
      0.1312001960D+03  0.9739996831D-01
      0.4285301589D+02  0.3019558425D+00
      0.1558418577D+02  0.6623360914D+00
 S   2 1.00       0.000000000000
      0.6206713851D+01  0.6559530854D+00
      0.2576489653D+01  0.3758563329D+00
 S   1 1.00       0.000000000000
      0.5769633942D+00  0.1000000000D+01
 S   1 1.00       0.000000000000
      0.2297283136D+00  0.1000000000D+01
 S   1 1.00       0.000000000000
      0.9516444003D-01  0.1000000000D+01
 P   4 1.00       0.000000000000
      0.3469723224D+02  0.1132722000D-01
      0.7958262283D+01  0.7616965920D-01
      0.2378082688D+01  0.3019225220D+00
      0.8143320818D+00  0.7278502735D+00
 P   1 1.00       0.000000000000
      0.2888754725D+00  0.1000000000D+01
 P   1 1.00       0.000000000000
      0.1005682367D+00  0.1000000000D+01
 D   1 1.00       0.000000000000
      0.1097000000D+01  0.1000000000D+01
 D   1 1.00       0.000000000000
      0.3180000000D+00  0.1000000000D+01
 F   1 1.00       0.000000000000
      0.7610000000D+00  0.1000000000D+01
 ****
      5 0
 S   6 1.00       0.000000000000
      0.1357534968D+05  0.6064550360D-03
      0.2035233368D+04  0.4697908888D-02
      0.4632256236D+03  0.2433247765D-01
      0.1312001960D+03  0.9739996831D-01
      0.4285301589D+02  0.3019558425D+00
      0.1558418577D+02  0.6623360914D+00
 S   2 1.00       0.000000000000
      0.6206713851D+01  0.6559530854D+00
      0.2576489653D+01  0.3758563329D+00
 S   1 1.00       0.000000000000
      0.5769633942D+00  0.1000000000D+01
 S   1 1.00       0.000000000000
      0.2297283136D+00  0.1000000000D+01
 S   1 1.00       0.000000000000
      0.9516444003D-01  0.1000000000D+01
 P   4 1.00       0.000000000000
      0.3469723224D+02  0.1132722000D-01
      0.7958262283D+01  0.7616965920D-01
      0.2378082688D+01  0.3019225220D+00
      0.8143320818D+00  0.7278502735D+00
 P   1 1.00       0.000000000000
      0.2888754725D+00  0.1000000000D+01
 P   1 1.00       0.000000000000
      0.1005682367D+00  0.1000000000D+01
 D   1 1.00       0.000000000000
      0.1097000000D+01  0.1000000000D+01
 D   1 1.00       0.000000000000
      0.3180000000D+00  0.1000000000D+01
 F   1 1.00       0.000000000000
      0.7610000000D+00  0.1000000000D+01
 ****
      6 0
 S   6 1.00       0.000000000000
      0.1357534968D+05  0.6064550360D-03
      0.2035233368D+04  0.4697908888D-02
      0.4632256236D+03  0.2433247765D-01
      0.1312001960D+03  0.9739996831D-01
      0.4285301589D+02  0.3019558425D+00
      0.1558418577D+02  0.6623360914D+00
 S   2 1.00       0.000000000000
      0.6206713851D+01  0.6559530854D+00
      0.2576489653D+01  0.3758563329D+00
 S   1 1.00       0.000000000000
      0.5769633942D+00  0.1000000000D+01
 S   1 1.00       0.000000000000
      0.2297283136D+00  0.1000000000D+01
 S   1 1.00       0.000000000000
      0.9516444003D-01  0.1000000000D+01
 P   4 1.00       0.000000000000
      0.3469723224D+02  0.1132722000D-01
      0.7958262283D+01  0.7616965920D-01
      0.2378082688D+01  0.3019225220D+00
      0.8143320818D+00  0.7278502735D+00
 P   1 1.00       0.000000000000
      0.2888754725D+00  0.1000000000D+01
 P   1 1.00       0.000000000000
      0.1005682367D+00  0.1000000000D+01
 D   1 1.00       0.000000000000
      0.1097000000D+01  0.1000000000D+01
 D   1 1.00       0.000000000000
      0.3180000000D+00  0.1000000000D+01
 F   1 1.00       0.000000000000
      0.7610000000D+00  0.1000000000D+01
 ****
      7 0
 S   3 1.00       0.000000000000
      0.3406134100D+02  0.2543930721D-01
      0.5123574600D+01  0.1900859489D+00
      0.1164662600D+01  0.8524411301D+00
 S   1 1.00       0.000000000000
      0.3272304100D+00  0.1000000000D+01
 S   1 1.00       0.000000000000
      0.1030724100D+00  0.1000000000D+01
 P   1 1.00       0.000000000000
      0.8000000000D+00  0.1000000000D+01
 ****
      8 0
 S   3 1.00       0.000000000000
      0.3406134100D+02  0.2543930721D-01
      0.5123574600D+01  0.1900859489D+00
      0.1164662600D+01  0.8524411301D+00
 S   1 1.00       0.000000000000
      0.3272304100D+00  0.1000000000D+01
 S   1 1.00       0.000000000000
      0.1030724100D+00  0.1000000000D+01
 P   1 1.00       0.000000000000
      0.8000000000D+00  0.1000000000D+01
 ****
      9 0
 S   3 1.00       0.000000000000
      0.3406134100D+02  0.2543930721D-01
      0.5123574600D+01  0.1900859489D+00
      0.1164662600D+01  0.8524411301D+00
 S   1 1.00       0.000000000000
      0.3272304100D+00  0.1000000000D+01
 S   1 1.00       0.000000000000
      0.1030724100D+00  0.1000000000D+01
 P   1 1.00       0.000000000000
      0.8000000000D+00  0.1000000000D+01
 ****
     10 0
 S   3 1.00       0.000000000000
      0.3406134100D+02  0.2543930721D-01
      0.5123574600D+01  0.1900859489D+00
      0.1164662600D+01  0.8524411301D+00
 S   1 1.00       0.000000000000
      0.3272304100D+00  0.1000000000D+01
 S   1 1.00       0.000000000000
      0.1030724100D+00  0.1000000000D+01
 P   1 1.00       0.000000000000
      0.8000000000D+00  0.1000000000D+01
 ****
     11 0
 S   6 1.00       0.000000000000
      0.1973080065D+05  0.5862640263D-03
      0.2957895874D+04  0.4542882059D-02
      0.6732213360D+03  0.2355841345D-01
      0.1906824949D+03  0.9470919329D-01
      0.6229544190D+02  0.2971978491D+00
      0.2265416118D+02  0.6691624690D+00
 S   2 1.00       0.000000000000
      0.8979147743D+01  0.6459668363D+00
      0.3686300237D+01  0.3870057439D+00
 S   1 1.00       0.000000000000
      0.8466007680D+00  0.1000000000D+01
 S   1 1.00       0.000000000000
      0.3364713377D+00  0.1000000000D+01
 S   1 1.00       0.000000000000
      0.1364765367D+00  0.1000000000D+01
 P   4 1.00       0.000000000000
      0.4920038051D+02  0.1144882510D-01
      0.1134679054D+02  0.7842233797D-01
      0.3427397241D+01  0.3081809474D+00
      0.1178552513D+01  0.7202719637D+00
 P   1 1.00       0.000000000000
      0.4164220497D+00  0.1000000000D+01
 P   1 1.00       0.000000000000
      0.1426082601D+00  0.1000000000D+01
 D   1 1.00       0.000000000000
      0.1654000000D+01  0.1000000000D+01
 D   1 1.00       0.000000000000
      0.4690000000D+00  0.1000000000D+01
 F   1 1.00       0.000000000000
      0.1093000000D+01  0.1000000000D+01
 ****
     12 0
 S   6 1.00       0.000000000000
      0.1357534968D+05  0.6064550360D-03
      0.2035233368D+04  0.4697908888D-02
      0.4632256236D+03  0.2433247765D-01
      0.1312001960D+03  0.9739996831D-01
      0.4285301589D+02  0.3019558425D+00
      0.1558418577D+02  0.6623360914D+00
 S   2 1.00       0.000000000000
      0.6206713851D+01  0.6559530854D+00
      0.2576489653D+01  0.3758563329D+00
 S   1 1.00       0.000000000000
      0.5769633942D+00  0.1000000000D+01
 S   1 1.00       0.000000000000
      0.2297283136D+00  0.1000000000D+01
 S   1 1.00       0.000000000000
      0.9516444003D-01  0.1000000000D+01
 P   4 1.00       0.000000000000
      0.3469723224D+02  0.1132722000D-01
      0.7958262283D+01  0.7616965920D-01
      0.2378082688D+01  0.3019225220D+00
      0.8143320818D+00  0.7278502735D+00
 P   1 1.00       0.000000000000
      0.2888754725D+00  0.1000000000D+01
 P   1 1.00       0.000000000000
      0.1005682367D+00  0.1000000000D+01
 D   1 1.00       0.000000000000
      0.1097000000D+01  0.1000000000D+01
 D   1 1.00       0.000000000000
      0.3180000000D+00  0.1000000000D+01
 F   1 1.00       0.000000000000
      0.7610000000D+00  0.1000000000D+01
 ****
     13 0
 S   6 1.00       0.000000000000
      0.1357534968D+05  0.6064550360D-03
      0.2035233368D+04  0.4697908888D-02
      0.4632256236D+03  0.2433247765D-01
      0.1312001960D+03  0.9739996831D-01
      0.4285301589D+02  0.3019558425D+00
      0.1558418577D+02  0.6623360914D+00
 S   2 1.00       0.000000000000
      0.6206713851D+01  0.6559530854D+00
      0.2576489653D+01  0.3758563329D+00
 S   1 1.00       0.000000000000
      0.5769633942D+00  0.1000000000D+01
 S   1 1.00       0.000000000000
      0.2297283136D+00  0.1000000000D+01
 S   1 1.00       0.000000000000
      0.9516444003D-01  0.1000000000D+01
 P   4 1.00       0.000000000000
      0.3469723224D+02  0.1132722000D-01
      0.7958262283D+01  0.7616965920D-01
      0.2378082688D+01  0.3019225220D+00
      0.8143320818D+00  0.7278502735D+00
 P   1 1.00       0.000000000000
      0.2888754725D+00  0.1000000000D+01
 P   1 1.00       0.000000000000
      0.1005682367D+00  0.1000000000D+01
 D   1 1.00       0.000000000000
      0.1097000000D+01  0.1000000000D+01
 D   1 1.00       0.000000000000
      0.3180000000D+00  0.1000000000D+01
 F   1 1.00       0.000000000000
      0.7610000000D+00  0.1000000000D+01
 ****
     14 0
 S   6 1.00       0.000000000000
      0.1357534968D+05  0.6064550360D-03
      0.2035233368D+04  0.4697908888D-02
      0.4632256236D+03  0.2433247765D-01
      0.1312001960D+03  0.9739996831D-01
      0.4285301589D+02  0.3019558425D+00
      0.1558418577D+02  0.6623360914D+00
 S   2 1.00       0.000000000000
      0.6206713851D+01  0.6559530854D+00
      0.2576489653D+01  0.3758563329D+00
 S   1 1.00       0.000000000000
      0.5769633942D+00  0.1000000000D+01
 S   1 1.00       0.000000000000
      0.2297283136D+00  0.1000000000D+01
 S   1 1.00       0.000000000000
      0.9516444003D-01  0.1000000000D+01
 P   4 1.00       0.000000000000
      0.3469723224D+02  0.1132722000D-01
      0.7958262283D+01  0.7616965920D-01
      0.2378082688D+01  0.3019225220D+00
      0.8143320818D+00  0.7278502735D+00
 P   1 1.00       0.000000000000
      0.2888754725D+00  0.1000000000D+01
 P   1 1.00       0.000000000000
      0.1005682367D+00  0.1000000000D+01
 D   1 1.00       0.000000000000
      0.1097000000D+01  0.1000000000D+01
 D   1 1.00       0.000000000000
      0.3180000000D+00  0.1000000000D+01
 F   1 1.00       0.000000000000
      0.7610000000D+00  0.1000000000D+01
 ****
     15 0
 S   3 1.00       0.000000000000
      0.3406134100D+02  0.2543930721D-01
      0.5123574600D+01  0.1900859489D+00
      0.1164662600D+01  0.8524411301D+00
 S   1 1.00       0.000000000000
      0.3272304100D+00  0.1000000000D+01
 S   1 1.00       0.000000000000
      0.1030724100D+00  0.1000000000D+01
 P   1 1.00       0.000000000000
      0.8000000000D+00  0.1000000000D+01
 ****
     16 0
 S   3 1.00       0.000000000000
      0.3406134100D+02  0.2543930721D-01
      0.5123574600D+01  0.1900859489D+00
      0.1164662600D+01  0.8524411301D+00
 S   1 1.00       0.000000000000
      0.3272304100D+00  0.1000000000D+01
 S   1 1.00       0.000000000000
      0.1030724100D+00  0.1000000000D+01
 P   1 1.00       0.000000000000
      0.8000000000D+00  0.1000000000D+01
 ****
     17 0
 S   6 1.00       0.000000000000
      0.1357534968D+05  0.6064550360D-03
      0.2035233368D+04  0.4697908888D-02
      0.4632256236D+03  0.2433247765D-01
      0.1312001960D+03  0.9739996831D-01
      0.4285301589D+02  0.3019558425D+00
      0.1558418577D+02  0.6623360914D+00
 S   2 1.00       0.000000000000
      0.6206713851D+01  0.6559530854D+00
      0.2576489653D+01  0.3758563329D+00
 S   1 1.00       0.000000000000
      0.5769633942D+00  0.1000000000D+01
 S   1 1.00       0.000000000000
      0.2297283136D+00  0.1000000000D+01
 S   1 1.00       0.000000000000
      0.9516444003D-01  0.1000000000D+01
 P   4 1.00       0.000000000000
      0.3469723224D+02  0.1132722000D-01
      0.7958262283D+01  0.7616965920D-01
      0.2378082688D+01  0.3019225220D+00
      0.8143320818D+00  0.7278502735D+00
 P   1 1.00       0.000000000000
      0.2888754725D+00  0.1000000000D+01
 P   1 1.00       0.000000000000
      0.1005682367D+00  0.1000000000D+01
 D   1 1.00       0.000000000000
      0.1097000000D+01  0.1000000000D+01
 D   1 1.00       0.000000000000
      0.3180000000D+00  0.1000000000D+01
 F   1 1.00       0.000000000000
      0.7610000000D+00  0.1000000000D+01
 ****
     18 0
 S   3 1.00       0.000000000000
      0.3406134100D+02  0.2543930721D-01
      0.5123574600D+01  0.1900859489D+00
      0.1164662600D+01  0.8524411301D+00
 S   1 1.00       0.000000000000
      0.3272304100D+00  0.1000000000D+01
 S   1 1.00       0.000000000000
      0.1030724100D+00  0.1000000000D+01
 P   1 1.00       0.000000000000
      0.8000000000D+00  0.1000000000D+01
 ****
     19 0
 S   3 1.00       0.000000000000
      0.3406134100D+02  0.2543930721D-01
      0.5123574600D+01  0.1900859489D+00
      0.1164662600D+01  0.8524411301D+00
 S   1 1.00       0.000000000000
      0.3272304100D+00  0.1000000000D+01
 S   1 1.00       0.000000000000
      0.1030724100D+00  0.1000000000D+01
 P   1 1.00       0.000000000000
      0.8000000000D+00  0.1000000000D+01
 ****
     20 0
 S   3 1.00       0.000000000000
      0.3406134100D+02  0.2543930721D-01
      0.5123574600D+01  0.1900859489D+00
      0.1164662600D+01  0.8524411301D+00
 S   1 1.00       0.000000000000
      0.3272304100D+00  0.1000000000D+01
 S   1 1.00       0.000000000000
      0.1030724100D+00  0.1000000000D+01
 P   1 1.00       0.000000000000
      0.8000000000D+00  0.1000000000D+01
 ****
     21 0
 S   6 1.00       0.000000000000
      0.1357534968D+05  0.6064550360D-03
      0.2035233368D+04  0.4697908888D-02
      0.4632256236D+03  0.2433247765D-01
      0.1312001960D+03  0.9739996831D-01
      0.4285301589D+02  0.3019558425D+00
      0.1558418577D+02  0.6623360914D+00
 S   2 1.00       0.000000000000
      0.6206713851D+01  0.6559530854D+00
      0.2576489653D+01  0.3758563329D+00
 S   1 1.00       0.000000000000
      0.5769633942D+00  0.1000000000D+01
 S   1 1.00       0.000000000000
      0.2297283136D+00  0.1000000000D+01
 S   1 1.00       0.000000000000
      0.9516444003D-01  0.1000000000D+01
 P   4 1.00       0.000000000000
      0.3469723224D+02  0.1132722000D-01
      0.7958262283D+01  0.7616965920D-01
      0.2378082688D+01  0.3019225220D+00
      0.8143320818D+00  0.7278502735D+00
 P   1 1.00       0.000000000000
      0.2888754725D+00  0.1000000000D+01
 P   1 1.00       0.000000000000
      0.1005682367D+00  0.1000000000D+01
 D   1 1.00       0.000000000000
      0.1097000000D+01  0.1000000000D+01
 D   1 1.00       0.000000000000
      0.3180000000D+00  0.1000000000D+01
 F   1 1.00       0.000000000000
      0.7610000000D+00  0.1000000000D+01
 ****
     22 0
 S   3 1.00       0.000000000000
      0.3406134100D+02  0.2543930721D-01
      0.5123574600D+01  0.1900859489D+00
      0.1164662600D+01  0.8524411301D+00
 S   1 1.00       0.000000000000
      0.3272304100D+00  0.1000000000D+01
 S   1 1.00       0.000000000000
      0.1030724100D+00  0.1000000000D+01
 P   1 1.00       0.000000000000
      0.8000000000D+00  0.1000000000D+01
 ****
     23 0
 S   3 1.00       0.000000000000
      0.3406134100D+02  0.2543930721D-01
      0.5123574600D+01  0.1900859489D+00
      0.1164662600D+01  0.8524411301D+00
 S   1 1.00       0.000000000000
      0.3272304100D+00  0.1000000000D+01
 S   1 1.00       0.000000000000
      0.1030724100D+00  0.1000000000D+01
 P   1 1.00       0.000000000000
      0.8000000000D+00  0.1000000000D+01
 ****
     24 0
 S   3 1.00       0.000000000000
      0.3406134100D+02  0.2543930721D-01
      0.5123574600D+01  0.1900859489D+00
      0.1164662600D+01  0.8524411301D+00
 S   1 1.00       0.000000000000
      0.3272304100D+00  0.1000000000D+01
 S   1 1.00       0.000000000000
      0.1030724100D+00  0.1000000000D+01
 P   1 1.00       0.000000000000
      0.8000000000D+00  0.1000000000D+01
 ****
     25 0
 S   6 1.00       0.000000000000
      0.2703238263D+05  0.5722733521D-03
      0.4052387139D+04  0.4435323349D-02
      0.9223272271D+03  0.2302010771D-01
      0.2612407099D+03  0.9282249067D-01
      0.8535464135D+02  0.2937850001D+00
      0.3103503524D+02  0.6740160450D+00
 S   2 1.00       0.000000000000
      0.1226086073D+02  0.6383993703D+00
      0.4998707601D+01  0.3953458713D+00
 S   1 1.00       0.000000000000
      0.1170310816D+01  0.1000000000D+01
 S   1 1.00       0.000000000000
      0.4647474099D+00  0.1000000000D+01
 S   1 1.00       0.000000000000
      0.1850453636D+00  0.1000000000D+01
 P   4 1.00       0.000000000000
      0.6327495480D+02  0.1201833222D-01
      0.1462704938D+02  0.8300542179D-01
      0.4450122346D+01  0.3199174393D+00
      0.1527579965D+01  0.7071554292D+00
 P   1 1.00       0.000000000000
      0.5293511794D+00  0.1000000000D+01
 P   1 1.00       0.000000000000
      0.1747842127D+00  0.1000000000D+01
 D   1 1.00       0.000000000000
      0.2314000000D+01  0.1000000000D+01
 D   1 1.00       0.000000000000
      0.6450000000D+00  0.1000000000D+01
 F   1 1.00       0.000000000000
      0.1428000000D+01  0.1000000000D+01
 ****
     26 0
 S   6 1.00       0.000000000000
      0.1357534968D+05  0.6064550360D-03
      0.2035233368D+04  0.4697908888D-02
      0.4632256236D+03  0.2433247765D-01
      0.1312001960D+03  0.9739996831D-01
      0.4285301589D+02  0.3019558425D+00
      0.1558418577D+02  0.6623360914D+00
 S   2 1.00       0.000000000000
      0.6206713851D+01  0.6559530854D+00
      0.2576489653D+01  0.3758563329D+00
 S   1 1.00       0.000000000000
      0.5769633942D+00  0.1000000000D+01
 S   1 1.00       0.000000000000
      0.2297283136D+00  0.1000000000D+01
 S   1 1.00       0.000000000000
      0.9516444003D-01  0.1000000000D+01
 P   4 1.00       0.000000000000
      0.3469723224D+02  0.1132722000D-01
      0.7958262283D+01  0.7616965920D-01
      0.2378082688D+01  0.3019225220D+00
      0.8143320818D+00  0.7278502735D+00
 P   1 1.00       0.000000000000
      0.2888754725D+00  0.1000000000D+01
 P   1 1.00       0.000000000000
      0.1005682367D+00  0.1000000000D+01
 D   1 1.00       0.000000000000
      0.1097000000D+01  0.1000000000D+01
 D   1 1.00       0.000000000000
      0.3180000000D+00  0.1000000000D+01
 F   1 1.00       0.000000000000
      0.7610000000D+00  0.1000000000D+01
 ****
     27 0
 S   6 1.00       0.000000000000
      0.1357534968D+05  0.6064550360D-03
      0.2035233368D+04  0.4697908888D-02
      0.4632256236D+03  0.2433247765D-01
      0.1312001960D+03  0.9739996831D-01
      0.4285301589D+02  0.3019558425D+00
      0.1558418577D+02  0.6623360914D+00
 S   2 1.00       0.000000000000
      0.6206713851D+01  0.6559530854D+00
      0.2576489653D+01  0.3758563329D+00
 S   1 1.00       0.000000000000
      0.5769633942D+00  0.1000000000D+01
 S   1 1.00       0.000000000000
      0.2297283136D+00  0.1000000000D+01
 S   1 1.00       0.000000000000
      0.9516444003D-01  0.1000000000D+01
 P   4 1.00       0.000000000000
      0.3469723224D+02  0.1132722000D-01
      0.7958262283D+01  0.7616965920D-01
      0.2378082688D+01  0.3019225220D+00
      0.8143320818D+00  0.7278502735D+00
 P   1 1.00       0.000000000000
      0.2888754725D+00  0.1000000000D+01
 P   1 1.00       0.000000000000
      0.1005682367D+00  0.1000000000D+01
 D   1 1.00       0.000000000000
      0.1097000000D+01  0.1000000000D+01
 D   1 1.00       0.000000000000
      0.3180000000D+00  0.1000000000D+01
 F   1 1.00       0.000000000000
      0.7610000000D+00  0.1000000000D+01
 ****
     28 0
 S   6 1.00       0.000000000000
      0.1357534968D+05  0.6064550360D-03
      0.2035233368D+04  0.4697908888D-02
      0.4632256236D+03  0.2433247765D-01
      0.1312001960D+03  0.9739996831D-01
      0.4285301589D+02  0.3019558425D+00
      0.1558418577D+02  0.6623360914D+00
 S   2 1.00       0.000000000000
      0.6206713851D+01  0.6559530854D+00
      0.2576489653D+01  0.3758563329D+00
 S   1 1.00       0.000000000000
      0.5769633942D+00  0.1000000000D+01
 S   1 1.00       0.000000000000
      0.2297283136D+00  0.1000000000D+01
 S   1 1.00       0.000000000000
      0.9516444003D-01  0.1000000000D+01
 P   4 1.00       0.000000000000
      0.3469723224D+02  0.1132722000D-01
      0.7958262283D+01  0.7616965920D-01
      0.2378082688D+01  0.3019225220D+00
      0.8143320818D+00  0.7278502735D+00
 P   1 1.00       0.000000000000
      0.2888754725D+00  0.1000000000D+01
 P   1 1.00       0.000000000000
      0.1005682367D+00  0.1000000000D+01
 D   1 1.00       0.000000000000
      0.1097000000D+01  0.1000000000D+01
 D   1 1.00       0.000000000000
      0.3180000000D+00  0.1000000000D+01
 F   1 1.00       0.000000000000
      0.7610000000D+00  0.1000000000D+01
 ****
     29 0
 S   6 1.00       0.000000000000
      0.1357534968D+05  0.6064550360D-03
      0.2035233368D+04  0.4697908888D-02
      0.4632256236D+03  0.2433247765D-01
      0.1312001960D+03  0.9739996831D-01
      0.4285301589D+02  0.3019558425D+00
      0.1558418577D+02  0.6623360914D+00
 S   2 1.00       0.000000000000
      0.6206713851D+01  0.6559530854D+00
      0.2576489653D+01  0.3758563329D+00
 S   1 1.00       0.000000000000
      0.5769633942D+00  0.1000000000D+01
 S   1 1.00       0.000000000000
      0.2297283136D+00  0.1000000000D+01
 S   1 1.00       0.000000000000
      0.9516444003D-01  0.1000000000D+01
 P   4 1.00       0.000000000000
      0.3469723224D+02  0.1132722000D-01
      0.7958262283D+01  0.7616965920D-01
      0.2378082688D+01  0.3019225220D+00
      0.8143320818D+00  0.7278502735D+00
 P   1 1.00       0.000000000000
      0.2888754725D+00  0.1000000000D+01
 P   1 1.00       0.000000000000
      0.1005682367D+00  0.1000000000D+01
 D   1 1.00       0.000000000000
      0.1097000000D+01  0.1000000000D+01
 D   1 1.00       0.000000000000
      0.3180000000D+00  0.1000000000D+01
 F   1 1.00       0.000000000000
      0.7610000000D+00  0.1000000000D+01
 ****
     30 0
 S   3 1.00       0.000000000000
      0.3406134100D+02  0.2543930721D-01
      0.5123574600D+01  0.1900859489D+00
      0.1164662600D+01  0.8524411301D+00
 S   1 1.00       0.000000000000
      0.3272304100D+00  0.1000000000D+01
 S   1 1.00       0.000000000000
      0.1030724100D+00  0.1000000000D+01
 P   1 1.00       0.000000000000
      0.8000000000D+00  0.1000000000D+01
 ****
     31 0
 S   3 1.00       0.000000000000
      0.3406134100D+02  0.2543930721D-01
      0.5123574600D+01  0.1900859489D+00
      0.1164662600D+01  0.8524411301D+00
 S   1 1.00       0.000000000000
      0.3272304100D+00  0.1000000000D+01
 S   1 1.00       0.000000000000
      0.1030724100D+00  0.1000000000D+01
 P   1 1.00       0.000000000000
      0.8000000000D+00  0.1000000000D+01
 ****
     32 0
 S   6 1.00       0.000000000000
      0.1357534968D+05  0.6064550360D-03
      0.2035233368D+04  0.4697908888D-02
      0.4632256236D+03  0.2433247765D-01
      0.1312001960D+03  0.9739996831D-01
      0.4285301589D+02  0.3019558425D+00
      0.1558418577D+02  0.6623360914D+00
 S   2 1.00       0.000000000000
      0.6206713851D+01  0.6559530854D+00
      0.2576489653D+01  0.3758563329D+00
 S   1 1.00       0.000000000000
[...]
                 (A) (A) (A) (A) (A) (A) (A) (A) (A) (A) (A) (A)
                 (A) (A) (A) (A) (A) (A) (A) (A) (A) (A) (A) (A)
                 (A) (A) (A) (A) (A) (A) (A) (A) (A) (A) (A) (A)
                 (A) (A) (A) (A) (A) (A) (A) (A) (A) (A) (A) (A)
                 (A) (A) (A) (A) (A) (A) (A) (A) (A) (A) (A) (A)
                 (A) (A) (A) (A) (A) (A) (A) (A) (A) (A) (A) (A)
                 (A) (A) (A) (A) (A) (A) (A) (A) (A) (A) (A) (A)
                 (A) (A) (A) (A) (A) (A) (A) (A) (A) (A) (A) (A)
                 (A) (A) (A) (A) (A) (A) (A) (A) (A) (A) (A) (A)
                 (A) (A) (A) (A) (A) (A) (A) (A) (A) (A) (A) (A)
                 (A) (A) (A) (A) (A) (A) (A) (A) (A) (A) (A) (A)
                 (A) (A) (A) (A) (A) (A) (A) (A) (A) (A) (A) (A)
                 (A) (A) (A) (A) (A) (A) (A) (A) (A) (A) (A) (A)
                 (A) (A) (A) (A) (A) (A) (A) (A) (A) (A) (A) (A)
                 (A) (A) (A) (A) (A) (A) (A) (A) (A) (A) (A) (A)
                 (A) (A) (A) (A) (A) (A) (A) (A) (A) (A) (A) (A)
                 (A) (A) (A) (A) (A) (A) (A) (A) (A) (A) (A) (A)
                 (A) (A) (A) (A) (A) (A) (A) (A) (A) (A) (A) (A)
                 (A) (A) (A) (A) (A) (A) (A) (A) (A) (A) (A) (A)
                 (A) (A) (A) (A) (A) (A) (A) (A) (A) (A) (A) (A)
                 (A) (A) (A) (A) (A) (A) (A) (A) (A) (A) (A) (A)
                 (A) (A) (A) (A) (A) (A) (A) (A) (A) (A) (A) (A)
                 (A) (A) (A) (A) (A) (A) (A) (A) (A) (A) (A) (A)
                 (A) (A) (A) (A) (A) (A) (A) (A) (A) (A) (A) (A)
                 (A) (A) (A) (A) (A) (A) (A) (A) (A) (A) (A) (A)
                 (A) (A) (A) (A) (A) (A) (A) (A) (A) (A) (A) (A)
                 (A) (A) (A) (A) (A) (A) (A) (A) (A) (A) (A) (A)
                 (A) (A) (A) (A) (A) (A) (A) (A) (A) (A) (A) (A)
                 (A) (A) (A) (A) (A) (A) (A) (A) (A) (A) (A) (A)
                 (A) (A) (A) (A) (A) (A) (A) (A) (A) (A) (A)
 Generating guess from densities on rwf.
 Convergence on wavefunction:    0.000001000000000
 Davidson Disk Diagonalization:  ConvIn= 1.00D-06 SkipCon=T Conv= 1.00D-06.
 Max sub-space:  2000 roots to seek:     5 dimension of matrix:        93574
 Iteration     1 Dimension    10 NMult     0 NNew     10
 CISAX will form    10 AO SS matrices at one time.
 NMat=    10 NSing=    10 JSym2X= 0.
 FoFJK:  IHMeth= 1 ICntrl=       0 DoSepK=T KAlg= 0 I1Cent=           0 FoldK=F
 IRaf=         1 NMat=      20 IRICut=       1 DoRegI=T DoRafI=F ISym2E= 0 IDoP0=3 IntGTp=3.
 FoFCou: FMM=F IPFlag=           0 FMFlag=      100000 FMFlg1=           0
         NFxFlg=           0 DoJE=F BraDBF=F KetDBF=F FulRan=T
         wScrn=  0.000000 ICntrl=       500 IOpCl=  0 I1Cent=           0 NGrid=           0
         NMat0=   10 NMatS0=     10 NMatT0=    0 NMatD0=   10 NMtDS0=    0 NMtDT0=    0
 Symmetry not used in FoFCou.
 Excitation Energies [eV] at current iteration:
 Root      1 :     2.449422061016403
 Root      2 :     3.542546135534714
 Root      3 :     3.721084773604654
 Root      4 :     4.151638185749188
 Root      5 :     4.485965909422773
 Iteration     2 Dimension    20 NMult    10 NNew     10
 CISAX will form    10 AO SS matrices at one time.
 NMat=    10 NSing=    10 JSym2X= 0.
 Root      1 not converged, maximum delta is    0.010290295752161
 Root      2 not converged, maximum delta is    0.009963048115689
 Root      3 not converged, maximum delta is    0.011126529156205
 Root      4 not converged, maximum delta is    0.011481623140702
 Root      5 not converged, maximum delta is    0.009034069806613
 Excitation Energies [eV] at current iteration:
 Root      1 :     2.433501608632623   Change is   -0.015920452383780
 Root      2 :     3.519429523006122   Change is   -0.023116612528592
 Root      3 :     3.694002955099646   Change is   -0.027081818505008
 Root      4 :     4.126305997004909   Change is   -0.025332188744278
 Root      5 :     4.476387335617289   Change is   -0.009578573805485
 Iteration     3 Dimension    30 NMult    20 NNew     10
 CISAX will form    10 AO SS matrices at one time.
 NMat=    10 NSing=    10 JSym2X= 0.
 Root      1 not converged, maximum delta is    0.005149704478198
 Root      2 not converged, maximum delta is    0.001004764687132
 Root      3 not converged, maximum delta is    0.001912180749683
 Root      4 not converged, maximum delta is    0.001543957442780
 Root      5 not converged, maximum delta is    0.003182063752086
 Excitation Energies [eV] at current iteration:
 Root      1 :     2.432395183274612   Change is   -0.001106425358011
 Root      2 :     3.518991697490404   Change is   -0.000437825515717
 Root      3 :     3.693751243016026   Change is   -0.000251712083620
 Root      4 :     4.125750657028048   Change is   -0.000555339976861
 Root      5 :     4.475800149486350   Change is   -0.000587186130938
 Iteration     4 Dimension    40 NMult    30 NNew     10
 CISAX will form    10 AO SS matrices at one time.
 NMat=    10 NSing=    10 JSym2X= 0.
 Root      1 not converged, maximum delta is    0.001451151780960
 Root      2 not converged, maximum delta is    0.000710717571648
 Root      3 not converged, maximum delta is    0.001750311507523
 Root      4 not converged, maximum delta is    0.001253379373475
 Root      5 not converged, maximum delta is    0.002739275196113
 Excitation Energies [eV] at current iteration:
 Root      1 :     2.432269074297751   Change is   -0.000126108976860
 Root      2 :     3.518959266037045   Change is   -0.000032431453359
 Root      3 :     3.693726057344153   Change is   -0.000025185671873
 Root      4 :     4.125699257706240   Change is   -0.000051399321808
 Root      5 :     4.475698570784822   Change is   -0.000101578701528
 Iteration     5 Dimension    50 NMult    40 NNew     10
 CISAX will form    10 AO SS matrices at one time.
 NMat=    10 NSing=    10 JSym2X= 0.
 Root      1 not converged, maximum delta is    0.000192184188051
 Root      2 not converged, maximum delta is    0.000580228217657
 Root      3 not converged, maximum delta is    0.000890140434139
 Root      4 not converged, maximum delta is    0.001721906134009
 Root      5 not converged, maximum delta is    0.002531280093472
 Excitation Energies [eV] at current iteration:
 Root      1 :     2.432263578848782   Change is   -0.000005495448969
 Root      2 :     3.518954282148704   Change is   -0.000004983888341
 Root      3 :     3.693720926629430   Change is   -0.000005130714722
 Root      4 :     4.125683703050309   Change is   -0.000015554655931
 Root      5 :     4.475676374215220   Change is   -0.000022196569603
 Iteration     6 Dimension    60 NMult    50 NNew     10
 CISAX will form    10 AO SS matrices at one time.
 NMat=    10 NSing=    10 JSym2X= 0.
 Root      1 not converged, maximum delta is    0.000047563415040
 Root      2 not converged, maximum delta is    0.000230803222421
 Root      3 not converged, maximum delta is    0.000152621237550
 Root      4 not converged, maximum delta is    0.001243561459847
 Root      5 not converged, maximum delta is    0.001533880945464
 Excitation Energies [eV] at current iteration:
 Root      1 :     2.432263126005425   Change is   -0.000000452843357
 Root      2 :     3.518953534053900   Change is   -0.000000748094805
 Root      3 :     3.693720405339860   Change is   -0.000000521289571
 Root      4 :     4.125678280422947   Change is   -0.000005422627362
 Root      5 :     4.475669495548056   Change is   -0.000006878667164
 Iteration     7 Dimension    70 NMult    60 NNew     10
 CISAX will form    10 AO SS matrices at one time.
 NMat=    10 NSing=    10 JSym2X= 0.
 Root      1 not converged, maximum delta is    0.000010303613368
 Root      2 not converged, maximum delta is    0.000046095949859
 Root      3 not converged, maximum delta is    0.000051012201472
 Root      4 not converged, maximum delta is    0.000410920361331
 Root      5 not converged, maximum delta is    0.001143166678523
 Excitation Energies [eV] at current iteration:
 Root      1 :     2.432263101154301   Change is   -0.000000024851125
 Root      2 :     3.518953451695037   Change is   -0.000000082358863
 Root      3 :     3.693720350167453   Change is   -0.000000055172407
 Root      4 :     4.125677142085457   Change is   -0.000001138337490
 Root      5 :     4.475667580566800   Change is   -0.000001914981255
 Iteration     8 Dimension    80 NMult    70 NNew     10
 CISAX will form    10 AO SS matrices at one time.
 NMat=    10 NSing=    10 JSym2X= 0.
 Root      1 not converged, maximum delta is    0.000001567873892
 Root      2 not converged, maximum delta is    0.000007194157878
 Root      3 not converged, maximum delta is    0.000038397196293
 Root      4 not converged, maximum delta is    0.000069330904195
 Root      5 not converged, maximum delta is    0.000312711198077
 Excitation Energies [eV] at current iteration:
 Root      1 :     2.432263099362898   Change is   -0.000000001791403
 Root      2 :     3.518953444348382   Change is   -0.000000007346655
 Root      3 :     3.693720335040169   Change is   -0.000000015127284
 Root      4 :     4.125676994037581   Change is   -0.000000148047877
 Root      5 :     4.475667205591467   Change is   -0.000000374975334
 Iteration     9 Dimension    90 NMult    80 NNew     10
 CISAX will form    10 AO SS matrices at one time.
 NMat=    10 NSing=    10 JSym2X= 0.
 Root      1 has converged.
 Root      2 not converged, maximum delta is    0.000002167960605
 Root      3 not converged, maximum delta is    0.000009265314980
 Root      4 not converged, maximum delta is    0.000023229098225
 Root      5 not converged, maximum delta is    0.000075262449330
 Excitation Energies [eV] at current iteration:
 Root      1 :     2.432263099267856   Change is   -0.000000000095042
 Root      2 :     3.518953443797965   Change is   -0.000000000550417
 Root      3 :     3.693720332956516   Change is   -0.000000002083653
 Root      4 :     4.125676978201311   Change is   -0.000000015836269
 Root      5 :     4.475667158701798   Change is   -0.000000046889669
 Iteration    10 Dimension    98 NMult    90 NNew      8
 CISAX will form     8 AO SS matrices at one time.
 NMat=     8 NSing=     8 JSym2X= 0.
 Root      1 has converged.
 Root      2 not converged, maximum delta is    0.000001128039519
 Root      3 not converged, maximum delta is    0.000001254063013
 Root      4 not converged, maximum delta is    0.000008048467870
 Root      5 not converged, maximum delta is    0.000013420763395
 Excitation Energies [eV] at current iteration:
 Root      1 :     2.432263099267045   Change is   -0.000000000000811
 Root      2 :     3.518953443742996   Change is   -0.000000000054969
 Root      3 :     3.693720332737027   Change is   -0.000000000219489
 Root      4 :     4.125676976230289   Change is   -0.000000001971023
 Root      5 :     4.475667153933720   Change is   -0.000000004768078
 Iteration    11 Dimension   106 NMult    98 NNew      8
 CISAX will form     8 AO SS matrices at one time.
 NMat=     8 NSing=     8 JSym2X= 0.
 Root      1 has converged.
 Root      2 has converged.
 Root      3 has converged.
 Root      4 not converged, maximum delta is    0.000004096219311
 Root      5 not converged, maximum delta is    0.000006357338265
 Excitation Energies [eV] at current iteration:
 Root      1 :     2.432263099265896   Change is   -0.000000000001149
 Root      2 :     3.518953443732763   Change is   -0.000000000010232
 Root      3 :     3.693720332712478   Change is   -0.000000000024548
 Root      4 :     4.125676975924049   Change is   -0.000000000306240
 Root      5 :     4.475667153248570   Change is   -0.000000000685150
 Iteration    12 Dimension   110 NMult   106 NNew      4
 CISAX will form     4 AO SS matrices at one time.
 NMat=     4 NSing=     4 JSym2X= 0.
 Root      1 has converged.
 Root      2 has converged.
 Root      3 has converged.
 Root      4 not converged, maximum delta is    0.000001019162147
 Root      5 not converged, maximum delta is    0.000001714816361
 Excitation Energies [eV] at current iteration:
 Root      1 :     2.432263099265625   Change is   -0.000000000000270
 Root      2 :     3.518953443732436   Change is   -0.000000000000327
 Root      3 :     3.693720332712212   Change is   -0.000000000000267
 Root      4 :     4.125676975874732   Change is   -0.000000000049317
 Root      5 :     4.475667153144443   Change is   -0.000000000104126
 Iteration    13 Dimension   114 NMult   110 NNew      4
 CISAX will form     4 AO SS matrices at one time.
 NMat=     4 NSing=     4 JSym2X= 0.
 Root      1 has converged.
 Root      2 has converged.
 Root      3 has converged.
 Root      4 has converged.
 Root      5 has converged.
 Excitation Energies [eV] at current iteration:
 Root      1 :     2.432263099265558   Change is   -0.000000000000068
 Root      2 :     3.518953443732296   Change is   -0.000000000000140
 Root      3 :     3.693720332712100   Change is   -0.000000000000112
 Root      4 :     4.125676975862499   Change is   -0.000000000012234
 Root      5 :     4.475667153129363   Change is   -0.000000000015080
 Convergence achieved on expansion vectors.
 ***********************************************************************
 Excited states from <AA,BB:AA,BB> singles matrix:
 ***********************************************************************
 
 1PDM for each excited state written to RWF  633
 Ground to excited state transition densities written to RWF  633
 Ground to excited state transition electric dipole moments (Au):
       state          X           Y           Z        Dip. S.      Osc.
         1         0.0421     -0.0106     -0.0015      0.0019      0.0001
         2        -2.5257      0.0968      0.1168      6.4021      0.5519
         3        -0.3880     -0.0668      0.0270      0.1557      0.0141
         4         1.2752      0.3245     -0.0879      1.7391      0.1758
         5        -0.0788      0.0670     -0.0554      0.0138      0.0015
 Ground to excited state transition velocity dipole moments (Au):
       state          X           Y           Z        Dip. S.      Osc.
         1        -0.0038      0.0011      0.0003      0.0000      0.0001
         2         0.3260     -0.0124     -0.0149      0.1067      0.5499
         3         0.0524      0.0093     -0.0040      0.0028      0.0140
         4        -0.1930     -0.0491      0.0130      0.0398      0.1751
         5         0.0130     -0.0110      0.0073      0.0003      0.0014
 Ground to excited state transition magnetic dipole moments (Au):
       state          X           Y           Z
         1         0.7102      0.0159     -0.0181
         2         0.0151     -0.1983      0.3045
         3        -0.0505     -0.0521     -0.0207
         4        -0.0535      0.1551     -0.4290
         5        -0.0149      1.0898      0.2325
 Ground to excited state transition velocity quadrupole moments (Au):
       state          XX          YY          ZZ          XY          XZ          YZ
         1         0.0378     -0.0030     -0.0018     -0.0105     -0.0029      0.0274
         2        -3.3201      0.1435      0.1506     -0.1448      0.1279      0.0261
         3        -0.1086     -0.0269      0.0117     -0.1640      0.0058     -0.0064
         4         2.2947      0.0571     -0.0831      0.4380     -0.1157     -0.0166
         5        -0.2411     -0.0061      0.0065     -0.0056     -0.1266      0.0017
 <0|del|b> * <b|rxdel|0> + <0|del|b> * <b|delr+rdel|0>
 Rotatory Strengths (R) in cgs (10**-40 erg-esu-cm/Gauss)
       state          XX          YY          ZZ    R(velocity)    E-M Angle
         1         0.0452    -11.1040    -10.2163     -7.0917      162.76
         2         4.5228     18.4131     -7.3599      5.1920       88.63
         3         0.5061     -9.2372     -7.1425     -5.2912      139.25
         4       -30.7457      5.3291     12.1060     -4.4369       91.78
         5       -25.2338      3.3817    -23.2748    -15.0423      120.55
 1/2[<0|r|b>*<b|rxdel|0> + (<0|rxdel|b>*<b|r|0>)*]
 Rotatory Strengths (R) in cgs (10**-40 erg-esu-cm/Gauss)
       state          XX          YY          ZZ     R(length)
         1       -21.1579      0.1185     -0.0196     -7.0196
         2        27.0280     13.5688    -25.1627      5.1447
         3       -13.8464     -2.4594      0.3949     -5.3036
         4        48.2852    -35.6051    -26.6501     -4.6567
         5        -0.8313    -51.6173      9.1166    -14.4440
  1/2[<0|del|b>*<b|r|0> + (<0|r|b>*<b|del|0>)*] (Au)
       state          X           Y           Z        Dip. S.   Osc.(frdel)
         1        -0.0002     -0.0000     -0.0000      0.0002      0.0001
         2        -0.8234     -0.0012     -0.0017      0.8264      0.5509
         3        -0.0203     -0.0006     -0.0001      0.0211      0.0140
         4        -0.2461     -0.0159     -0.0011      0.2632      0.1755
         5        -0.0010     -0.0007     -0.0004      0.0022      0.0014

 Excitation energies and oscillator strengths:
 
 Excited State   1:      Singlet-A      2.4323 eV  509.75 nm  f=0.0001  <S**2>=0.000
      81 -> 86         0.67692
      81 -> 89         0.10901
      82 -> 86        -0.11641
 This state for optimization and/or second-order correction.
 Total Energy, E(TD-HF/TD-DFT) =  -1069.74478897    
 Copying the excited state density for this state as the 1-particle RhoCI density.
 
 Excited State   2:      Singlet-A      3.5190 eV  352.33 nm  f=0.5519  <S**2>=0.000
      84 -> 86        -0.67963
 
 Excited State   3:      Singlet-A      3.6937 eV  335.66 nm  f=0.0141  <S**2>=0.000
      82 -> 86         0.11342
      85 -> 86         0.68309
 
 Excited State   4:      Singlet-A      4.1257 eV  300.52 nm  f=0.1758  <S**2>=0.000
      81 -> 86        -0.11001
      82 -> 86        -0.65165
      84 -> 87         0.14388
      85 -> 86         0.11734
 
 Excited State   5:      Singlet-A      4.4757 eV  277.02 nm  f=0.0015  <S**2>=0.000
      75 -> 86         0.67343
      75 -> 89         0.10647
 SavETr:  write IOETrn=   770 NScale= 10 NData=  16 NLR=1 NState=    5 LETran=     100.
 The selected state is a singlet.
 CISGrd: IGrad=2 NXY=2 DFT=T
 CISAX will form     1 AO SS matrices at one time.
 NMat=     1 NSing=     1 JSym2X= 0.
 GePol: Maximum number of non-zero 1st derivatives   =     210
 Leave Link  914 at Thu May  9 10:54:02 2024, MaxMem=  2684354560 cpu:           80590.3 elap:            3357.4
 (Enter /s/ls4/groups/g0130/bin/g16/l1002.exe)
 Minotr:  Closed shell wavefunction.
          Computing CIS/TDA/TD derivatives.
          Using Z-Vector for PSCF gradient.
          Skipping F1 and S1 gradient terms here.
          IDoAtm=111111111111111111111111111111111111111111
 NEqPCM:  Using equilibrium solvation (IEInf=0, Eps=  35.6880, EpsInf=   1.8069)
          Frozen-core window.
          Direct CPHF calculation.
          Differentiating once with respect to electric field.
                with respect to dipole field.
          Differentiating once with respect to nuclear coordinates.
          Requested convergence is 1.0D-10 RMS, and 1.0D-09 maximum.
          NewPWx=F KeepS1=T KeepF1=T KeepIn=T MapXYZ=F SortEE=F KeepMc=T.
 Two-electron integral symmetry used by symmetrizing perturbed Fock matrices.
          MDV=    2684354560 using IRadAn=       5.
          Solving linear equations separately, MaxMat=     384.
          There are     1 degrees of freedom in the 1st order CPHF.  IDoFFX=0 NUNeed=     1.
 FoFJK:  IHMeth= 1 ICntrl=       0 DoSepK=T KAlg= 0 I1Cent=           0 FoldK=F
 IRaf=         1 NMat=       1 IRICut=       1 DoRegI=T DoRafI=F ISym2E=-1 IDoP0=0 IntGTp=1.
 FoFCou: FMM=F IPFlag=           0 FMFlag=      100000 FMFlg1=           0
         NFxFlg=           0 DoJE=T BraDBF=F KetDBF=F FulRan=T
         wScrn=  0.000000 ICntrl=       500 IOpCl=  0 I1Cent=           0 NGrid=           0
         NMat0=    1 NMatS0=      1 NMatT0=    0 NMatD0=    1 NMtDS0=    0 NMtDT0=    0
 Petite list used in FoFCou.
