 Entering Gaussian System, Link 0=/s/ls4/groups/g0130/bin/g16/g16
 Input=sp1_s1_pbe0.gjf
 Output=sp1_s1_pbe0.log
 Initial command:
 /s/ls4/groups/g0130/bin/g16/l1.exe "/dev/shm/scratch_artd/Gau-34256.inp" -scrdir="/dev/shm/scratch_artd/"
 Entering Link 1 = /s/ls4/groups/g0130/bin/g16/l1.exe PID=     34257.
  
 Copyright (c) 1988,1990,1992,1993,1995,1998,2003,2009,2016,
            Gaussian, Inc.  All Rights Reserved.
  
 This is part of the Gaussian(R) 16 program.  It is based on
 the Gaussian(R) 09 system (copyright 2009, Gaussian, Inc.),
 the Gaussian(R) 03 system (copyright 2003, Gaussian, Inc.),
 the Gaussian(R) 98 system (copyright 1998, Gaussian, Inc.),
 the Gaussian(R) 94 system (copyright 1995, Gaussian, Inc.),
 the Gaussian 92(TM) system (copyright 1992, Gaussian, Inc.),
 the Gaussian 90(TM) system (copyright 1990, Gaussian, Inc.),
 the Gaussian 88(TM) system (copyright 1988, Gaussian, Inc.),
 the Gaussian 86(TM) system (copyright 1986, Carnegie Mellon
 University), and the Gaussian 82(TM) system (copyright 1983,
 Carnegie Mellon University). Gaussian is a federally registered
 trademark of Gaussian, Inc.
  
 This software contains proprietary and confidential information,
 including trade secrets, belonging to Gaussian, Inc.
  
 This software is provided under written license and may be
 used, copied, transmitted, or stored only in accord with that
 written license.
  
 The following legend is applicable only to US Government
 contracts under FAR:
  
                    RESTRICTED RIGHTS LEGEND
  
 Use, reproduction and disclosure by the US Government is
 subject to restrictions as set forth in subparagraphs (a)
 and (c) of the Commercial Computer Software - Restricted
 Rights clause in FAR 52.227-19.
  
 Gaussian, Inc.
 340 Quinnipiac St., Bldg. 40, Wallingford CT 06492
  
  
 ---------------------------------------------------------------
 Warning -- This program may not be used in any manner that
 competes with the business of Gaussian, Inc. or will provide
 assistance to any competitor of Gaussian, Inc.  The licensee
 of this program is prohibited from giving any competitor of
 Gaussian, Inc. access to this program.  By using this program,
 the user acknowledges that Gaussian, Inc. is engaged in the
 business of creating and licensing software in the field of
 computational chemistry and represents and warrants to the
 licensee that it is not a competitor of Gaussian, Inc. and that
 it will not use this program in any manner prohibited above.
 ---------------------------------------------------------------
  

 Cite this work as:
 Gaussian 16, Revision A.03,
 M. J. Frisch, G. W. Trucks, H. B. Schlegel, G. E. Scuseria, 
 M. A. Robb, J. R. Cheeseman, G. Scalmani, V. Barone, 
 G. A. Petersson, H. Nakatsuji, X. Li, M. Caricato, A. V. Marenich, 
 J. Bloino, B. G. Janesko, R. Gomperts, B. Mennucci, H. P. Hratchian, 
 J. V. Ortiz, A. F. Izmaylov, J. L. Sonnenberg, D. Williams-Young, 
 F. Ding, F. Lipparini, F. Egidi, J. Goings, B. Peng, A. Petrone, 
 T. Henderson, D. Ranasinghe, V. G. Zakrzewski, J. Gao, N. Rega, 
 G. Zheng, W. Liang, M. Hada, M. Ehara, K. Toyota, R. Fukuda, 
 J. Hasegawa, M. Ishida, T. Nakajima, Y. Honda, O. Kitao, H. Nakai, 
 T. Vreven, K. Throssell, J. A. Montgomery, Jr., J. E. Peralta, 
 F. Ogliaro, M. J. Bearpark, J. J. Heyd, E. N. Brothers, K. N. Kudin, 
 V. N. Staroverov, T. A. Keith, R. Kobayashi, J. Normand, 
 K. Raghavachari, A. P. Rendell, J. C. Burant, S. S. Iyengar, 
 J. Tomasi, M. Cossi, J. M. Millam, M. Klene, C. Adamo, R. Cammi, 
 J. W. Ochterski, R. L. Martin, K. Morokuma, O. Farkas, 
 J. B. Foresman, and D. J. Fox, Gaussian, Inc., Wallingford CT, 2016.
 
 ******************************************
 Gaussian 16:  ES64L-G16RevA.03 25-Dec-2016
                 7-May-2024 
 ******************************************
 %nprocshared=24
 Will use up to   24 processors via shared memory.
 %mem=20GB
 %oldchk=sp1_gs_pbe0.chk
 %chk=sp1_s1_pbe0.chk
 Copying data from "sp1_gs_pbe0.chk" to current chk file "sp1_s1_pbe0.chk"
 IOpt=  2 FromEx=T IUOpen= 4 IOptOp= 5 NList=   0 IFRang= 0 IUIn= 4 IUOut= 2.
 ----------------------------------------------------------------------
 #p PBE1PBE/def2TZVP EmpiricalDispersion=GD3BJ SCRF(PCM,Solvent=acetoni
 trile) TD(Singlets,NStates=5, root=1) opt guess=(read) geom=(allcheck)
  gfinput
 ----------------------------------------------------------------------
 1/18=20,19=15,26=3,29=7,38=1/1,3;
 2/9=110,12=2,40=1/2;
 3/5=44,7=101,11=9,14=-4,24=10,25=1,30=1,70=2201,71=1,72=2,74=-13,116=-2,124=41/1,2,3,8;
 4/5=1/1;
 5/5=2,38=6,53=2/2;
 8/6=1,10=1,107=1,108=5/1;
 9/8=1,15=2,41=5,42=1,48=1,70=2/14;
 10/5=4,28=1/2;
 6/7=2,8=2,9=2,10=2/1;
 7/12=6,13=5,14=1/1,2,3,16;
 1/18=20,19=15,26=3/3(2);
 2/9=110/2;
 99//99;
 2/9=110/2;
 3/5=44,7=101,11=9,14=-2,25=1,30=1,70=2205,71=1,72=2,74=-13,124=41/1,2,3,8;
 4/5=5,16=3,69=1/1;
 5/5=2,38=5,53=2/2;
 8/6=1,10=1,107=1,108=5/1;
 9/8=1,15=2,41=5,42=1,48=1,49=4,70=2/14;
 10/5=4,28=1/2;
 7/12=6,13=5,14=1/1,2,3,16;
 1/18=20,19=15,26=3/3(-8);
 2/9=110/2;
 6/7=2,8=2,9=2,10=2/1;
 99//99;
 Leave Link    1 at Tue May  7 19:44:37 2024, MaxMem=  2684354560 cpu:              34.5 elap:               1.5
 (Enter /s/ls4/groups/g0130/bin/g16/l101.exe)
 Structure from the checkpoint file:  "sp1_s1_pbe0.chk"
 -----
 TITLE
 -----
 Charge =  0 Multiplicity = 1
 Redundant internal coordinates found in file.  (old form).
 C,0,-5.6255301423,1.4823285223,-1.4689808472
 C,0,-4.733795761,0.881532374,-0.5809252133
 C,0,-3.7402792216,1.6731490706,-0.0278202589
 C,0,-3.6259108869,3.0253768973,-0.3540578614
 C,0,-4.5094366538,3.6075823838,-1.2341898267
 C,0,-5.5203781238,2.8254145519,-1.7985206345
 H,0,-4.8173498773,-0.1719668815,-0.3435394752
 H,0,-6.2198633516,3.2679832144,-2.4976227806
 H,0,-6.4088812882,0.8805391316,-1.9160165423
 H,0,-4.4228947819,4.6579712069,-1.4915906509
 N,0,-2.7518785935,1.3153704209,0.8803629815
 C,0,-1.71901972,2.3167257625,0.8460746662
 C,0,-2.4933830243,3.6185304883,0.4478375506
 C,0,-2.4088674951,-0.0666256495,1.095770575
 H,0,-1.6443915711,-0.1300043788,1.8699618041
 H,0,-2.0337553892,-0.5503433754,0.1851090181
 C,0,-3.0852611478,4.2964108609,1.6871381883
 H,0,-3.6584943858,3.5930212706,2.2944448058
 H,0,-3.7581989625,5.092771499,1.3654115057
 H,0,-2.3040396024,4.7434825628,2.3060350878
 C,0,-1.6259998864,4.6095506056,-0.308505587
 H,0,-1.2689458545,4.1998971253,-1.2519230246
 H,0,-0.7623136141,4.901444127,0.2944199571
 H,0,-2.2034499135,5.5118719618,-0.5198395593
 O,0,-0.842780936,2.0172626195,-0.2840955887
 C,0,0.3757380002,1.5041745984,-0.1408987421
 C,0,-0.9630490344,2.3836980597,2.1272667092
 C,0,0.3017015447,1.9845237116,2.2458327832
 C,0,1.024366954,1.473139904,1.1042230654
 H,0,-1.517173287,2.7335796199,2.9872977994
 H,0,0.8069336335,2.0219791161,3.2044641012
 C,0,2.3083260382,0.9605813793,1.1792490351
 C,0,1.0105630323,1.0286893227,-1.2881347392
 C,0,2.2877254137,0.520860687,-1.2037534742
 C,0,2.9255605755,0.4900364763,0.031816216
 H,0,2.8298173397,0.9276722921,2.1266248054
 H,0,0.4857223382,1.0679025632,-2.2340783881
 H,0,2.7973308999,0.1474036489,-2.0807588563
 N,0,4.2651928068,-0.0436436279,0.121487561
 O,0,4.8064818321,-0.0637384794,1.2127952679
 O,0,4.7935320308,-0.4496306592,-0.8984202723
 H,0,-3.2847499877,-0.6153568516,1.4442349328
 Recover connectivity data from disk.
 ITRead=  0  0  0  0  0  0  0  0  0  0  0  0  0  0  0  0  0  0  0  0
 ITRead=  0  0  0  0  0  0  0  0  0  0  0  0  0  0  0  0  0  0  0  0
 ITRead=  0  0
 MicOpt= -1 -1 -1 -1 -1 -1 -1 -1 -1 -1 -1 -1 -1 -1 -1 -1 -1 -1 -1 -1
 MicOpt= -1 -1 -1 -1 -1 -1 -1 -1 -1 -1 -1 -1 -1 -1 -1 -1 -1 -1 -1 -1
 MicOpt= -1 -1
 NAtoms=     42 NQM=       42 NQMF=       0 NMMI=      0 NMMIF=      0
                NMic=       0 NMicF=      0.
                    Isotopes and Nuclear Properties:
 (Nuclear quadrupole moments (NQMom) in fm**2, nuclear magnetic moments (NMagM)
  in nuclear magnetons)

  Atom         1           2           3           4           5           6           7           8           9          10
 IAtWgt=          12          12          12          12          12          12           1           1           1           1
 AtmWgt=  12.0000000  12.0000000  12.0000000  12.0000000  12.0000000  12.0000000   1.0078250   1.0078250   1.0078250   1.0078250
 NucSpn=           0           0           0           0           0           0           1           1           1           1
 AtZEff=   3.6000000   3.6000000   3.6000000   3.6000000   3.6000000   3.6000000   1.0000000   1.0000000   1.0000000   1.0000000
 NQMom=    0.0000000   0.0000000   0.0000000   0.0000000   0.0000000   0.0000000   0.0000000   0.0000000   0.0000000   0.0000000
 NMagM=    0.0000000   0.0000000   0.0000000   0.0000000   0.0000000   0.0000000   2.7928460   2.7928460   2.7928460   2.7928460
 AtZNuc=   6.0000000   6.0000000   6.0000000   6.0000000   6.0000000   6.0000000   1.0000000   1.0000000   1.0000000   1.0000000

  Atom        11          12          13          14          15          16          17          18          19          20
 IAtWgt=          14          12          12          12           1           1          12           1           1           1
 AtmWgt=  14.0030740  12.0000000  12.0000000  12.0000000   1.0078250   1.0078250  12.0000000   1.0078250   1.0078250   1.0078250
 NucSpn=           2           0           0           0           1           1           0           1           1           1
 AtZEff=   4.5500000   3.6000000   3.6000000   3.6000000   1.0000000   1.0000000   3.6000000   1.0000000   1.0000000   1.0000000
 NQMom=    2.0440000   0.0000000   0.0000000   0.0000000   0.0000000   0.0000000   0.0000000   0.0000000   0.0000000   0.0000000
 NMagM=    0.4037610   0.0000000   0.0000000   0.0000000   2.7928460   2.7928460   0.0000000   2.7928460   2.7928460   2.7928460
 AtZNuc=   7.0000000   6.0000000   6.0000000   6.0000000   1.0000000   1.0000000   6.0000000   1.0000000   1.0000000   1.0000000

  Atom        21          22          23          24          25          26          27          28          29          30
 IAtWgt=          12           1           1           1          16          12          12          12          12           1
 AtmWgt=  12.0000000   1.0078250   1.0078250   1.0078250  15.9949146  12.0000000  12.0000000  12.0000000  12.0000000   1.0078250
 NucSpn=           0           1           1           1           0           0           0           0           0           1
 AtZEff=   3.6000000   1.0000000   1.0000000   1.0000000   5.6000000   3.6000000   3.6000000   3.6000000   3.6000000   1.0000000
 NQMom=    0.0000000   0.0000000   0.0000000   0.0000000   0.0000000   0.0000000   0.0000000   0.0000000   0.0000000   0.0000000
 NMagM=    0.0000000   2.7928460   2.7928460   2.7928460   0.0000000   0.0000000   0.0000000   0.0000000   0.0000000   2.7928460
 AtZNuc=   6.0000000   1.0000000   1.0000000   1.0000000   8.0000000   6.0000000   6.0000000   6.0000000   6.0000000   1.0000000

  Atom        31          32          33          34          35          36          37          38          39          40
 IAtWgt=           1          12          12          12          12           1           1           1          14          16
 AtmWgt=   1.0078250  12.0000000  12.0000000  12.0000000  12.0000000   1.0078250   1.0078250   1.0078250  14.0030740  15.9949146
 NucSpn=           1           0           0           0           0           1           1           1           2           0
 AtZEff=   1.0000000   3.6000000   3.6000000   3.6000000   3.6000000   1.0000000   1.0000000   1.0000000   4.5500000   5.6000000
 NQMom=    0.0000000   0.0000000   0.0000000   0.0000000   0.0000000   0.0000000   0.0000000   0.0000000   2.0440000   0.0000000
 NMagM=    2.7928460   0.0000000   0.0000000   0.0000000   0.0000000   2.7928460   2.7928460   2.7928460   0.4037610   0.0000000
 AtZNuc=   1.0000000   6.0000000   6.0000000   6.0000000   6.0000000   1.0000000   1.0000000   1.0000000   7.0000000   8.0000000

  Atom        41          42
 IAtWgt=          16           1
 AtmWgt=  15.9949146   1.0078250
 NucSpn=           0           1
 AtZEff=   5.6000000   1.0000000
 NQMom=    0.0000000   0.0000000
 NMagM=    0.0000000   2.7928460
 AtZNuc=   8.0000000   1.0000000
 Leave Link  101 at Tue May  7 19:44:38 2024, MaxMem=  2684354560 cpu:               7.2 elap:               0.3
 (Enter /s/ls4/groups/g0130/bin/g16/l103.exe)

 GradGradGradGradGradGradGradGradGradGradGradGradGradGradGradGradGradGrad
 Berny optimization.
 Initialization pass.
                           ----------------------------
                           !    Initial Parameters    !
                           ! (Angstroms and Degrees)  !
 --------------------------                            --------------------------
 ! Name  Definition              Value          Derivative Info.                !
 --------------------------------------------------------------------------------
 ! R1    R(1,2)                  1.3946         estimate D2E/DX2                !
 ! R2    R(1,6)                  1.3869         estimate D2E/DX2                !
 ! R3    R(1,9)                  1.0843         estimate D2E/DX2                !
 ! R4    R(2,3)                  1.3855         estimate D2E/DX2                !
 ! R5    R(2,7)                  1.0831         estimate D2E/DX2                !
 ! R6    R(3,4)                  1.3957         estimate D2E/DX2                !
 ! R7    R(3,11)                 1.3892         estimate D2E/DX2                !
 ! R8    R(4,5)                  1.3763         estimate D2E/DX2                !
 ! R9    R(4,13)                 1.5091         estimate D2E/DX2                !
 ! R10   R(5,6)                  1.3972         estimate D2E/DX2                !
 ! R11   R(5,10)                 1.0849         estimate D2E/DX2                !
 ! R12   R(6,8)                  1.0835         estimate D2E/DX2                !
 ! R13   R(11,12)                1.439          estimate D2E/DX2                !
 ! R14   R(11,14)                1.4401         estimate D2E/DX2                !
 ! R15   R(12,13)                1.5662         estimate D2E/DX2                !
 ! R16   R(12,25)                1.4611         estimate D2E/DX2                !
 ! R17   R(12,27)                1.4891         estimate D2E/DX2                !
 ! R18   R(13,17)                1.5316         estimate D2E/DX2                !
 ! R19   R(13,21)                1.5187         estimate D2E/DX2                !
 ! R20   R(14,15)                1.0899         estimate D2E/DX2                !
 ! R21   R(14,16)                1.0973         estimate D2E/DX2                !
 ! R22   R(14,42)                1.0907         estimate D2E/DX2                !
 ! R23   R(17,18)                1.0919         estimate D2E/DX2                !
 ! R24   R(17,19)                1.0911         estimate D2E/DX2                !
 ! R25   R(17,20)                1.0923         estimate D2E/DX2                !
 ! R26   R(21,22)                1.0887         estimate D2E/DX2                !
 ! R27   R(21,23)                1.093          estimate D2E/DX2                !
 ! R28   R(21,24)                1.0919         estimate D2E/DX2                !
 ! R29   R(25,26)                1.3299         estimate D2E/DX2                !
 ! R30   R(26,29)                1.4043         estimate D2E/DX2                !
 ! R31   R(26,33)                1.3947         estimate D2E/DX2                !
 ! R32   R(27,28)                1.3315         estimate D2E/DX2                !
 ! R33   R(27,30)                1.0813         estimate D2E/DX2                !
 ! R34   R(28,29)                1.4447         estimate D2E/DX2                !
 ! R35   R(28,31)                1.0843         estimate D2E/DX2                !
 ! R36   R(29,32)                1.3845         estimate D2E/DX2                !
 ! R37   R(32,35)                1.3853         estimate D2E/DX2                !
 ! R38   R(32,36)                1.0819         estimate D2E/DX2                !
 ! R39   R(33,34)                1.377          estimate D2E/DX2                !
 ! R40   R(33,37)                1.0825         estimate D2E/DX2                !
 ! R41   R(34,35)                1.3908         estimate D2E/DX2                !
 ! R42   R(34,38)                1.0809         estimate D2E/DX2                !
 ! R43   R(35,39)                1.4448         estimate D2E/DX2                !
 ! R44   R(39,40)                1.2183         estimate D2E/DX2                !
 ! R45   R(39,41)                1.2183         estimate D2E/DX2                !
 ! A1    A(2,1,6)              121.3341         estimate D2E/DX2                !
 ! A2    A(2,1,9)              119.0397         estimate D2E/DX2                !
 ! A3    A(6,1,9)              119.6232         estimate D2E/DX2                !
 ! A4    A(1,2,3)              117.8133         estimate D2E/DX2                !
 ! A5    A(1,2,7)              120.6147         estimate D2E/DX2                !
 ! A6    A(3,2,7)              121.57           estimate D2E/DX2                !
 ! A7    A(2,3,4)              121.2649         estimate D2E/DX2                !
 ! A8    A(2,3,11)             128.612          estimate D2E/DX2                !
 ! A9    A(4,3,11)             110.123          estimate D2E/DX2                !
 ! A10   A(3,4,5)              120.445          estimate D2E/DX2                !
 ! A11   A(3,4,13)             108.5473         estimate D2E/DX2                !
 ! A12   A(5,4,13)             130.9416         estimate D2E/DX2                !
 ! A13   A(4,5,6)              119.0749         estimate D2E/DX2                !
 ! A14   A(4,5,10)             120.6684         estimate D2E/DX2                !
 ! A15   A(6,5,10)             120.2563         estimate D2E/DX2                !
 ! A16   A(1,6,5)              120.0659         estimate D2E/DX2                !
 ! A17   A(1,6,8)              119.9957         estimate D2E/DX2                !
 ! A18   A(5,6,8)              119.9378         estimate D2E/DX2                !
 ! A19   A(3,11,12)            108.4152         estimate D2E/DX2                !
 ! A20   A(3,11,14)            120.9582         estimate D2E/DX2                !
 ! A21   A(12,11,14)           120.0258         estimate D2E/DX2                !
 ! A22   A(11,12,13)           103.2725         estimate D2E/DX2                !
 ! A23   A(11,12,25)           107.8342         estimate D2E/DX2                !
 ! A24   A(11,12,27)           112.0357         estimate D2E/DX2                !
 ! A25   A(13,12,25)           105.6759         estimate D2E/DX2                !
 ! A26   A(13,12,27)           115.6195         estimate D2E/DX2                !
 ! A27   A(25,12,27)           111.7326         estimate D2E/DX2                !
 ! A28   A(4,13,12)            100.3382         estimate D2E/DX2                !
 ! A29   A(4,13,17)            108.2951         estimate D2E/DX2                !
 ! A30   A(4,13,21)            114.863          estimate D2E/DX2                !
 ! A31   A(12,13,17)           110.684          estimate D2E/DX2                !
 ! A32   A(12,13,21)           112.7452         estimate D2E/DX2                !
 ! A33   A(17,13,21)           109.5649         estimate D2E/DX2                !
 ! A34   A(11,14,15)           109.2157         estimate D2E/DX2                !
 ! A35   A(11,14,16)           112.3541         estimate D2E/DX2                !
 ! A36   A(11,14,42)           109.8341         estimate D2E/DX2                !
 ! A37   A(15,14,16)           108.9121         estimate D2E/DX2                !
 ! A38   A(15,14,42)           107.8829         estimate D2E/DX2                !
 ! A39   A(16,14,42)           108.5352         estimate D2E/DX2                !
 ! A40   A(13,17,18)           111.5816         estimate D2E/DX2                !
 ! A41   A(13,17,19)           108.8316         estimate D2E/DX2                !
 ! A42   A(13,17,20)           111.2983         estimate D2E/DX2                !
 ! A43   A(18,17,19)           108.0829         estimate D2E/DX2                !
 ! A44   A(18,17,20)           108.9047         estimate D2E/DX2                !
 ! A45   A(19,17,20)           108.0247         estimate D2E/DX2                !
 ! A46   A(13,21,22)           111.9203         estimate D2E/DX2                !
 ! A47   A(13,21,23)           110.5391         estimate D2E/DX2                !
 ! A48   A(13,21,24)           109.4863         estimate D2E/DX2                !
 ! A49   A(22,21,23)           108.6225         estimate D2E/DX2                !
 ! A50   A(22,21,24)           108.4608         estimate D2E/DX2                !
 ! A51   A(23,21,24)           107.6957         estimate D2E/DX2                !
 ! A52   A(12,25,26)           123.0446         estimate D2E/DX2                !
 ! A53   A(25,26,29)           121.8177         estimate D2E/DX2                !
 ! A54   A(25,26,33)           117.388          estimate D2E/DX2                !
 ! A55   A(29,26,33)           120.7676         estimate D2E/DX2                !
 ! A56   A(12,27,28)           123.0475         estimate D2E/DX2                !
 ! A57   A(12,27,30)           116.0226         estimate D2E/DX2                !
 ! A58   A(28,27,30)           120.8609         estimate D2E/DX2                !
 ! A59   A(27,28,29)           120.7235         estimate D2E/DX2                !
 ! A60   A(27,28,31)           120.7281         estimate D2E/DX2                !
 ! A61   A(29,28,31)           118.5418         estimate D2E/DX2                !
 ! A62   A(26,29,28)           117.5025         estimate D2E/DX2                !
 ! A63   A(26,29,32)           118.9846         estimate D2E/DX2                !
 ! A64   A(28,29,32)           123.5129         estimate D2E/DX2                !
 ! A65   A(29,32,35)           119.6084         estimate D2E/DX2                !
 ! A66   A(29,32,36)           120.3782         estimate D2E/DX2                !
 ! A67   A(35,32,36)           120.0133         estimate D2E/DX2                !
 ! A68   A(26,33,34)           119.8336         estimate D2E/DX2                !
 ! A69   A(26,33,37)           119.0624         estimate D2E/DX2                !
 ! A70   A(34,33,37)           121.104          estimate D2E/DX2                !
 ! A71   A(33,34,35)           119.2064         estimate D2E/DX2                !
 ! A72   A(33,34,38)           120.9966         estimate D2E/DX2                !
 ! A73   A(35,34,38)           119.797          estimate D2E/DX2                !
 ! A74   A(32,35,34)           121.5992         estimate D2E/DX2                !
 ! A75   A(32,35,39)           119.1562         estimate D2E/DX2                !
 ! A76   A(34,35,39)           119.2445         estimate D2E/DX2                !
 ! A77   A(35,39,40)           118.2701         estimate D2E/DX2                !
 ! A78   A(35,39,41)           118.2452         estimate D2E/DX2                !
 ! A79   A(40,39,41)           123.4847         estimate D2E/DX2                !
 ! D1    D(6,1,2,3)              0.4424         estimate D2E/DX2                !
 ! D2    D(6,1,2,7)           -179.0498         estimate D2E/DX2                !
 ! D3    D(9,1,2,3)            179.8041         estimate D2E/DX2                !
 ! D4    D(9,1,2,7)              0.3119         estimate D2E/DX2                !
 ! D5    D(2,1,6,5)             -0.2522         estimate D2E/DX2                !
 ! D6    D(2,1,6,8)            179.4726         estimate D2E/DX2                !
 ! D7    D(9,1,6,5)           -179.6102         estimate D2E/DX2                !
 ! D8    D(9,1,6,8)              0.1145         estimate D2E/DX2                !
 ! D9    D(1,2,3,4)             -0.4866         estimate D2E/DX2                !
 ! D10   D(1,2,3,11)           179.3608         estimate D2E/DX2                !
 ! D11   D(7,2,3,4)            179.0005         estimate D2E/DX2                !
 ! D12   D(7,2,3,11)            -1.1521         estimate D2E/DX2                !
 ! D13   D(2,3,4,5)              0.3442         estimate D2E/DX2                !
 ! D14   D(2,3,4,13)           177.6987         estimate D2E/DX2                !
 ! D15   D(11,3,4,5)          -179.5288         estimate D2E/DX2                !
 ! D16   D(11,3,4,13)           -2.1743         estimate D2E/DX2                !
 ! D17   D(2,3,11,12)          162.1359         estimate D2E/DX2                !
 ! D18   D(2,3,11,14)           17.5747         estimate D2E/DX2                !
 ! D19   D(4,3,11,12)          -18.003          estimate D2E/DX2                !
 ! D20   D(4,3,11,14)         -162.5643         estimate D2E/DX2                !
 ! D21   D(3,4,5,6)             -0.137          estimate D2E/DX2                !
 ! D22   D(3,4,5,10)          -179.8989         estimate D2E/DX2                !
 ! D23   D(13,4,5,6)          -176.8161         estimate D2E/DX2                !
 ! D24   D(13,4,5,10)            3.4221         estimate D2E/DX2                !
 ! D25   D(3,4,13,12)           19.1051         estimate D2E/DX2                !
 ! D26   D(3,4,13,17)          -96.9012         estimate D2E/DX2                !
 ! D27   D(3,4,13,21)          140.2829         estimate D2E/DX2                !
 ! D28   D(5,4,13,12)         -163.9145         estimate D2E/DX2                !
 ! D29   D(5,4,13,17)           80.0792         estimate D2E/DX2                !
 ! D30   D(5,4,13,21)          -42.7368         estimate D2E/DX2                !
 ! D31   D(4,5,6,1)              0.0928         estimate D2E/DX2                !
 ! D32   D(4,5,6,8)           -179.6322         estimate D2E/DX2                !
 ! D33   D(10,5,6,1)           179.8556         estimate D2E/DX2                !
 ! D34   D(10,5,6,8)             0.1307         estimate D2E/DX2                !
 ! D35   D(3,11,12,13)          29.3864         estimate D2E/DX2                !
 ! D36   D(3,11,12,25)         -82.176          estimate D2E/DX2                !
 ! D37   D(3,11,12,27)         154.4681         estimate D2E/DX2                !
 ! D38   D(14,11,12,13)        174.3356         estimate D2E/DX2                !
 ! D39   D(14,11,12,25)         62.7732         estimate D2E/DX2                !
 ! D40   D(14,11,12,27)        -60.5828         estimate D2E/DX2                !
 ! D41   D(3,11,14,15)        -177.787          estimate D2E/DX2                !
 ! D42   D(3,11,14,16)          61.2513         estimate D2E/DX2                !
 ! D43   D(3,11,14,42)         -59.6607         estimate D2E/DX2                !
 ! D44   D(12,11,14,15)         41.6637         estimate D2E/DX2                !
 ! D45   D(12,11,14,16)        -79.298          estimate D2E/DX2                !
 ! D46   D(12,11,14,42)        159.7899         estimate D2E/DX2                !
 ! D47   D(11,12,13,4)         -28.5954         estimate D2E/DX2                !
 ! D48   D(11,12,13,17)         85.6062         estimate D2E/DX2                !
 ! D49   D(11,12,13,21)       -151.2725         estimate D2E/DX2                !
 ! D50   D(25,12,13,4)          84.5473         estimate D2E/DX2                !
 ! D51   D(25,12,13,17)       -161.2511         estimate D2E/DX2                !
 ! D52   D(25,12,13,21)        -38.1298         estimate D2E/DX2                !
 ! D53   D(27,12,13,4)        -151.3217         estimate D2E/DX2                !
 ! D54   D(27,12,13,17)        -37.12           estimate D2E/DX2                !
 ! D55   D(27,12,13,21)         86.0012         estimate D2E/DX2                !
 ! D56   D(11,12,25,26)       -105.9753         estimate D2E/DX2                !
 ! D57   D(13,12,25,26)        144.1005         estimate D2E/DX2                !
 ! D58   D(27,12,25,26)         17.5649         estimate D2E/DX2                !
 ! D59   D(11,12,27,28)        110.0539         estimate D2E/DX2                !
 ! D60   D(11,12,27,30)        -66.9439         estimate D2E/DX2                !
 ! D61   D(13,12,27,28)       -131.9914         estimate D2E/DX2                !
 ! D62   D(13,12,27,30)         51.0109         estimate D2E/DX2                !
 ! D63   D(25,12,27,28)        -11.0786         estimate D2E/DX2                !
 ! D64   D(25,12,27,30)        171.9237         estimate D2E/DX2                !
 ! D65   D(4,13,17,18)          58.0578         estimate D2E/DX2                !
 ! D66   D(4,13,17,19)         -61.1234         estimate D2E/DX2                !
 ! D67   D(4,13,17,20)         179.9397         estimate D2E/DX2                !
 ! D68   D(12,13,17,18)        -51.0206         estimate D2E/DX2                !
 ! D69   D(12,13,17,19)       -170.2018         estimate D2E/DX2                !
 ! D70   D(12,13,17,20)         70.8613         estimate D2E/DX2                !
 ! D71   D(21,13,17,18)       -175.9646         estimate D2E/DX2                !
 ! D72   D(21,13,17,19)         64.8543         estimate D2E/DX2                !
 ! D73   D(21,13,17,20)        -54.0826         estimate D2E/DX2                !
 ! D74   D(4,13,21,22)         -51.9169         estimate D2E/DX2                !
 ! D75   D(4,13,21,23)        -173.1386         estimate D2E/DX2                !
 ! D76   D(4,13,21,24)          68.3789         estimate D2E/DX2                !
 ! D77   D(12,13,21,22)         62.2089         estimate D2E/DX2                !
 ! D78   D(12,13,21,23)        -59.0127         estimate D2E/DX2                !
 ! D79   D(12,13,21,24)       -177.4953         estimate D2E/DX2                !
 ! D80   D(17,13,21,22)       -174.0486         estimate D2E/DX2                !
 ! D81   D(17,13,21,23)         64.7297         estimate D2E/DX2                !
 ! D82   D(17,13,21,24)        -53.7528         estimate D2E/DX2                !
 ! D83   D(12,25,26,29)        -13.7744         estimate D2E/DX2                !
 ! D84   D(12,25,26,33)        168.0895         estimate D2E/DX2                !
 ! D85   D(25,26,29,28)          1.8841         estimate D2E/DX2                !
 ! D86   D(25,26,29,32)       -178.14           estimate D2E/DX2                !
 ! D87   D(33,26,29,28)        179.958          estimate D2E/DX2                !
 ! D88   D(33,26,29,32)         -0.0661         estimate D2E/DX2                !
 ! D89   D(25,26,33,34)        178.2155         estimate D2E/DX2                !
 ! D90   D(25,26,33,37)         -1.704          estimate D2E/DX2                !
 ! D91   D(29,26,33,34)          0.0587         estimate D2E/DX2                !
 ! D92   D(29,26,33,37)       -179.8608         estimate D2E/DX2                !
 ! D93   D(12,27,28,29)          0.9359         estimate D2E/DX2                !
 ! D94   D(12,27,28,31)       -178.1226         estimate D2E/DX2                !
 ! D95   D(30,27,28,29)        177.7929         estimate D2E/DX2                !
 ! D96   D(30,27,28,31)         -1.2657         estimate D2E/DX2                !
 ! D97   D(27,28,29,26)          4.4187         estimate D2E/DX2                !
 ! D98   D(27,28,29,32)       -175.5561         estimate D2E/DX2                !
 ! D99   D(31,28,29,26)       -176.5025         estimate D2E/DX2                !
 ! D100  D(31,28,29,32)          3.5227         estimate D2E/DX2                !
 ! D101  D(26,29,32,35)         -0.0313         estimate D2E/DX2                !
 ! D102  D(26,29,32,36)        179.8781         estimate D2E/DX2                !
 ! D103  D(28,29,32,35)        179.9431         estimate D2E/DX2                !
 ! D104  D(28,29,32,36)         -0.1474         estimate D2E/DX2                !
 ! D105  D(29,32,35,34)          0.1387         estimate D2E/DX2                !
 ! D106  D(29,32,35,39)       -179.9564         estimate D2E/DX2                !
 ! D107  D(36,32,35,34)       -179.7712         estimate D2E/DX2                !
 ! D108  D(36,32,35,39)          0.1338         estimate D2E/DX2                !
 ! D109  D(26,33,34,35)          0.046          estimate D2E/DX2                !
 ! D110  D(26,33,34,38)        179.9998         estimate D2E/DX2                !
 ! D111  D(37,33,34,35)        179.9637         estimate D2E/DX2                !
 ! D112  D(37,33,34,38)         -0.0824         estimate D2E/DX2                !
 ! D113  D(33,34,35,32)         -0.146          estimate D2E/DX2                !
 ! D114  D(33,34,35,39)        179.9491         estimate D2E/DX2                !
 ! D115  D(38,34,35,32)        179.8995         estimate D2E/DX2                !
 ! D116  D(38,34,35,39)         -0.0054         estimate D2E/DX2                !
 ! D117  D(32,35,39,40)          0.1872         estimate D2E/DX2                !
 ! D118  D(32,35,39,41)       -179.8094         estimate D2E/DX2                !
 ! D119  D(34,35,39,40)       -179.9056         estimate D2E/DX2                !
 ! D120  D(34,35,39,41)          0.0979         estimate D2E/DX2                !
 --------------------------------------------------------------------------------
 Trust Radius=3.00D-01 FncErr=1.00D-07 GrdErr=1.00D-06 EigMax=2.50D+02 EigMin=1.00D-04
 Number of steps in this run=    252 maximum allowed number of steps=    252.
 GradGradGradGradGradGradGradGradGradGradGradGradGradGradGradGradGradGrad

 Leave Link  103 at Tue May  7 19:44:38 2024, MaxMem=  2684354560 cpu:               0.5 elap:               0.0
 (Enter /s/ls4/groups/g0130/bin/g16/l202.exe)
                          Input orientation:                          
 ---------------------------------------------------------------------
 Center     Atomic      Atomic             Coordinates (Angstroms)
 Number     Number       Type             X           Y           Z
 ---------------------------------------------------------------------
      1          6           0       -5.625530    1.482329   -1.468981
      2          6           0       -4.733796    0.881532   -0.580925
      3          6           0       -3.740279    1.673149   -0.027820
      4          6           0       -3.625911    3.025377   -0.354058
      5          6           0       -4.509437    3.607582   -1.234190
      6          6           0       -5.520378    2.825415   -1.798521
      7          1           0       -4.817350   -0.171967   -0.343539
      8          1           0       -6.219863    3.267983   -2.497623
      9          1           0       -6.408881    0.880539   -1.916017
     10          1           0       -4.422895    4.657971   -1.491591
     11          7           0       -2.751879    1.315370    0.880363
     12          6           0       -1.719020    2.316726    0.846075
     13          6           0       -2.493383    3.618530    0.447838
     14          6           0       -2.408867   -0.066626    1.095771
     15          1           0       -1.644392   -0.130004    1.869962
     16          1           0       -2.033755   -0.550343    0.185109
     17          6           0       -3.085261    4.296411    1.687138
     18          1           0       -3.658494    3.593021    2.294445
     19          1           0       -3.758199    5.092771    1.365412
     20          1           0       -2.304040    4.743483    2.306035
     21          6           0       -1.626000    4.609551   -0.308506
     22          1           0       -1.268946    4.199897   -1.251923
     23          1           0       -0.762314    4.901444    0.294420
     24          1           0       -2.203450    5.511872   -0.519840
     25          8           0       -0.842781    2.017263   -0.284096
     26          6           0        0.375738    1.504175   -0.140899
     27          6           0       -0.963049    2.383698    2.127267
     28          6           0        0.301702    1.984524    2.245833
     29          6           0        1.024367    1.473140    1.104223
     30          1           0       -1.517173    2.733580    2.987298
     31          1           0        0.806934    2.021979    3.204464
     32          6           0        2.308326    0.960581    1.179249
     33          6           0        1.010563    1.028689   -1.288135
     34          6           0        2.287725    0.520861   -1.203753
     35          6           0        2.925561    0.490036    0.031816
     36          1           0        2.829817    0.927672    2.126625
     37          1           0        0.485722    1.067903   -2.234078
     38          1           0        2.797331    0.147404   -2.080759
     39          7           0        4.265193   -0.043644    0.121488
     40          8           0        4.806482   -0.063738    1.212795
     41          8           0        4.793532   -0.449631   -0.898420
     42          1           0       -3.284750   -0.615357    1.444235
 ---------------------------------------------------------------------
                    Distance matrix (angstroms):
                    1          2          3          4          5
     1  C    0.000000
     2  C    1.394557   0.000000
     3  C    2.380657   1.385517   0.000000
     4  C    2.760893   2.423829   1.395719   0.000000
     5  C    2.411948   2.812195   2.406026   1.376304   0.000000
     6  C    1.386915   2.424856   2.762580   2.390704   1.397232
     7  H    2.157885   1.083141   2.159679   3.412132   3.895261
     8  H    2.144737   3.402539   3.846005   3.373769   2.153404
     9  H    1.084265   2.142051   3.363771   3.845123   3.392572
    10  H    3.395814   3.897109   3.393781   2.143485   1.084925
    11  N    3.715530   2.500315   1.389150   2.282948   3.579746
    12  C    4.616982   3.631113   2.294204   2.361935   3.712174
    13  C    4.248282   3.683607   2.359133   1.509134   2.625606
    14  C    4.395922   3.019206   2.462099   3.625421   4.831243
    15  H    5.440369   4.071176   3.353459   4.339253   5.640372
    16  H    4.446191   3.150761   2.810957   3.951131   5.042991
    17  C    4.932861   4.418503   3.201817   2.464612   3.322186
    18  H    4.742112   4.095876   3.014218   2.708846   3.629818
    19  H    4.955402   4.740733   3.692592   2.692247   3.086758
    20  H    5.993177   5.399344   4.115412   3.431519   4.322874
    21  C    5.207923   4.861145   3.629244   2.551730   3.189834
    22  H    5.139272   4.844272   3.740371   2.782255   3.294227
    23  H    6.200872   5.718268   4.403863   3.484299   4.248724
    24  H    5.371101   5.276971   4.164099   2.869414   3.074767
    25  O    4.956289   4.064233   2.929093   2.960912   4.108060
    26  C    6.146503   5.166105   4.121036   4.286337   5.429967
    27  C    5.956861   4.879481   3.586403   3.695884   5.037276
    28  C    7.013139   5.879063   4.648017   4.823790   6.155642
    29  C    7.130399   6.028778   4.901365   5.114793   6.375500
    30  H    6.188913   5.148685   3.893283   3.961891   5.247712
    31  H    7.969247   6.806576   5.589856   5.772348   7.104898
    32  C    8.380419   7.259197   6.208896   6.467579   7.701506
    33  C    6.654038   5.789599   4.957239   5.133824   6.092946
    34  C    7.975862   7.058311   6.248794   6.478092   7.465266
    35  C    8.738317   7.693794   6.770283   7.035526   8.160946
    36  H    9.204832   8.033754   6.954390   7.227073   8.505389
    37  H    6.172887   5.478231   4.805516   4.926633   5.692220
    38  H    8.549906   7.714034   7.020171   7.247224   8.128860
    39  N   10.133340   9.073650   8.188849   8.480245   9.600179
    40  O   10.881595   9.753352   8.809258   9.116080  10.307894
    41  O   10.612015   9.625112   8.836859   9.124638  10.154750
    42  H    4.285599   2.905458   2.758933   4.074947   5.148498
                    6          7          8          9         10
     6  C    0.000000
     7  H    3.405219   0.000000
     8  H    1.083462   4.294226   0.000000
     9  H    2.141444   2.472534   2.464525   0.000000
    10  H    2.157994   4.980152   2.484605   4.288738   0.000000
    11  N    4.137782   2.824231   5.220192   4.624120   4.426222
    12  C    4.658645   4.148304   5.687073   5.629084   4.272827
    13  C    3.851994   4.516079   4.762906   5.330622   2.926574
    14  C    5.140264   2.807757   6.209330   5.095890   5.750875
    15  H    6.100454   3.868981   7.180324   6.168889   6.476482
    16  H    5.242811   2.858502   6.268985   5.060028   5.970415
    17  C    4.499271   5.204823   5.328754   5.974726   3.467608
    18  H    4.561600   4.740996   5.443360   5.714033   4.006556
    19  H    4.272780   5.635582   4.930789   5.961274   2.965355
    20  H    5.556185   6.123611   6.370707   7.042569   4.349577
    21  C    4.535358   5.748813   5.262663   6.274199   3.037212
    22  H    4.501405   5.703466   5.189587   6.154518   3.196039
    23  H    5.597274   6.526087   6.344174   7.275812   4.080315
    24  H    4.455793   6.258560   5.007818   6.409696   2.568926
    25  O    4.982621   4.538002   5.947858   5.910734   4.609621
    26  C    6.265586   5.460648   7.222681   7.040669   5.898956
    27  C    6.031266   5.243276   7.057313   6.947281   5.498998
    28  C    7.138663   6.128620   8.165687   7.973186   6.590711
    29  C    7.286169   6.239235   8.286955   8.045260   6.823054
    30  H    6.240043   5.516144   7.244669   7.169732   5.675116
    31  H    8.106185   7.002449   9.134670   8.921334   7.506830
    32  C    8.580986   7.374063   9.569405   9.250772   8.131015
    33  C    6.792784   6.024816   7.665270   7.447438   6.537243
    34  C    8.162793   7.190415   9.033263   8.733135   7.888660
    35  C    8.951983   7.780219   9.887054   9.543498   8.584419
    36  H    9.419870   8.111109  10.428684  10.084578   8.922357
    37  H    6.273101   5.764893   7.062201   6.904479   6.126533
    38  H    8.742750   7.816859   9.550999   9.236827   8.533698
    39  N   10.376672   9.095345  11.303230  10.906026  10.009499
    40  O   11.138189   9.749463  12.101564  11.681845  10.713993
    41  O   10.858768   9.630890  11.733413  11.326911  10.553766
    42  H    5.229953   2.396162   6.263662   4.825888   6.141859
                   11         12         13         14         15
    11  N    0.000000
    12  C    1.438988   0.000000
    13  C    2.357635   1.566182   0.000000
    14  C    1.440129   2.493712   3.742638   0.000000
    15  H    2.072424   2.653376   4.098138   1.089868   0.000000
    16  H    2.116593   2.959057   4.202356   1.097268   1.779612
    17  C    3.106225   2.548167   1.531570   4.454583   4.658614
    18  H    2.830066   2.736470   2.183596   4.048630   4.254141
    19  H    3.939126   3.483446   2.148276   5.339736   5.656867
    20  H    3.739660   2.891865   2.180428   4.961136   4.937223
    21  C    3.678673   2.568804   1.518726   4.944846   5.216267
    22  H    3.881524   2.854907   2.174033   5.001430   5.351184
    23  H    4.142659   2.810761   2.160094   5.294811   5.345640
    24  H    4.457798   3.508469   2.145973   5.811371   6.152598
    25  O    2.343773   1.461081   2.413353   2.949449   3.145361
    26  C    3.295544   2.454051   3.612335   3.427943   3.285578
    27  C    2.428169   1.489104   2.585965   3.026295   2.617085
    28  C    3.411250   2.480523   3.703412   3.588459   2.898239
    29  C    3.786164   2.881744   4.172302   3.762718   3.206041
    30  H    2.824002   2.190741   2.860941   3.494874   3.076481
    31  H    4.308815   3.468331   4.586944   4.376098   3.524333
    32  C    5.081425   4.262587   5.536792   4.828461   4.158177
    33  C    4.352073   3.696554   4.690257   4.309898   4.285432
    34  C    5.511116   4.845713   5.931468   5.262218   5.033179
    35  C    5.799528   5.056870   6.271005   5.467906   4.964644
    36  H    5.732260   4.925566   6.196411   5.430940   4.604683
    37  H    4.499227   3.988457   4.751152   4.555623   4.776559
    38  H    6.397352   5.802563   6.814263   6.102512   5.950970
    39  N    7.187635   6.473575   7.693918   6.744838   6.163425
    40  O    7.690336   6.955808   8.211717   7.216299   6.484599
    41  O    7.950630   7.287614   8.453489   7.483184   7.015195
    42  H    2.080772   3.377339   4.420958   1.090735   1.762835
                   16         17         18         19         20
    16  H    0.000000
    17  C    5.181967   0.000000
    18  H    4.925093   1.091867   0.000000
    19  H    6.017605   1.091120   1.767002   0.000000
    20  H    5.709288   1.092343   1.777145   1.766736   0.000000
    21  C    5.199464   2.492006   3.455389   2.753502   2.704348
    22  H    5.021432   3.456356   4.319139   3.720759   3.745126
    23  H    5.599152   2.775214   3.754988   3.187312   2.539383
    24  H    6.105424   2.669398   3.703963   2.479327   2.930206
    25  O    2.869002   3.756194   4.130391   4.547449   4.034393
    26  C    3.183235   4.807995   5.154533   5.677714   4.864341
    27  C    3.677905   2.890669   2.959026   3.966405   2.720073
    28  C    4.015780   4.138657   4.274667   5.188366   3.795440
    29  C    3.780393   5.019929   5.276335   6.003573   4.818484
    30  H    4.347789   2.567442   2.409137   3.635725   2.263402
    31  H    4.878818   4.756522   4.820410   5.801062   4.229883
    32  C    4.703709   6.362114   6.616370   7.342505   6.070742
    33  C    3.732515   6.025448   6.419562   6.804349   6.140386
    34  C    4.663863   7.175027   7.552026   8.003510   7.157755
    35  C    5.069586   7.304694   7.622190   8.224128   7.114253
    36  H    5.441356   6.821268   7.016441   7.831313   6.399147
    37  H    3.849540   6.208955   6.637641   6.867806   6.473430
    38  H    5.381487   8.125035   8.525982   8.905488   8.148121
    39  N    6.319616   8.678508   8.985093   9.607545   8.416866
    40  O    6.934102   9.028594   9.284271   9.998332   8.652402
    41  O    6.913467   9.554340   9.898190  10.439122   9.360154
    42  H    1.776123   4.921815   4.309639   5.728272   5.515583
                   21         22         23         24         25
    21  C    0.000000
    22  H    1.088733   0.000000
    23  H    1.093012   1.772010   0.000000
    24  H    1.091922   1.769328   1.764232   0.000000
    25  O    2.708133   2.425325   2.942730   3.757564   0.000000
    26  C    3.698433   3.347578   3.609169   4.780946   1.329870
    27  C    3.365548   3.848516   3.120684   4.281499   2.442009
    28  C    4.139015   4.428217   3.667229   5.134872   2.776950
    29  C    4.342501   4.271523   3.949845   5.419201   2.389506
    30  H    3.793867   4.492516   3.538508   4.526577   3.416128
    31  H    4.995563   5.376987   4.384314   5.925555   3.858967
    32  C    5.568421   5.403761   5.073672   6.630028   3.631450
    33  C    4.553428   3.905641   4.543765   5.569478   2.328144
    34  C    5.730279   5.117376   5.544075   6.748969   3.589576
    35  C    6.148408   5.744992   5.755857   7.199299   4.078311
    36  H    6.272192   6.238742   5.661382   7.304275   4.526230
    37  H    4.550876   3.721946   4.758880   5.469838   2.543352
    38  H    6.528207   5.800369   6.396362   7.498120   4.469316
    39  N    7.519525   7.107783   7.054050   8.550929   5.522973
    40  O    8.095110   7.820757   7.517176   9.122971   6.203662
    41  O    8.194736   7.648314   7.805401   9.200032   6.183121
    42  H    5.755277   5.875322   6.174128   6.524548   3.985100
                   26         27         28         29         30
    26  C    0.000000
    27  C    2.776776   0.000000
    28  C    2.435714   1.331537   0.000000
    29  C    1.404283   2.413619   1.444656   0.000000
    30  H    3.857481   1.081261   2.102180   3.405012   0.000000
    31  H    3.412551   2.103339   1.084268   2.181631   2.440289
    32  C    2.402744   3.691327   2.492509   1.384520   4.587702
    33  C    1.394718   4.170870   3.728945   2.433332   5.251231
    34  C    2.398387   5.013322   4.241019   2.798154   6.077688
    35  C    2.749528   4.806054   3.744329   2.393969   5.788458
    36  H    3.390652   4.062739   2.742720   2.145342   4.785226
    37  H    2.140988   4.780333   4.576425   3.405673   5.835138
    38  H    3.386443   6.070334   5.321895   3.878800   7.140620
    39  N    4.194335   6.103249   4.933109   3.710708   7.025781
    40  O    4.891046   6.333537   5.055254   4.083892   7.138800
    41  O    4.889591   7.093713   5.998998   4.681264   8.065769
    42  H    4.517105   3.853720   4.501619   4.800616   4.089101
                   31         32         33         34         35
    31  H    0.000000
    32  C    2.735368   0.000000
    33  C    4.605598   2.788693   0.000000
    34  C    4.886561   2.423320   1.377009   0.000000
    35  C    4.111098   1.385277   2.387390   1.390833   0.000000
    36  H    2.539942   1.081923   3.870462   3.398644   2.142175
    37  H    5.530930   3.870944   1.082499   2.146634   3.379500
    38  H    5.950571   3.395296   2.144168   1.080882   2.144018
    39  N    5.072583   2.440626   3.705340   2.446489   1.444808
    40  O    4.930857   2.700211   4.675152   3.539152   2.288939
    41  O    6.231812   3.532939   4.080216   2.704468   2.288587
    42  H    5.176468   5.816898   5.349621   6.273381   6.464115
                   36         37         38         39         40
    36  H    0.000000
    37  H    4.952795   0.000000
    38  H    4.279247   2.492862   0.000000
    39  N    2.650346   4.590057   2.653490   0.000000
    40  O    2.392735   5.641854   3.863776   1.218339   0.000000
    41  O    3.860575   4.758583   2.395661   1.218269   2.146232
    42  H    6.343069   5.529902   7.071004   7.686231   8.113315
                   41         42
    41  O    0.000000
    42  H    8.412737   0.000000
 Stoichiometry    C19H18N2O3
 Framework group  C1[X(C19H18N2O3)]
 Deg. of freedom   120
 Full point group                 C1      NOp   1
 RotChk:  IX=2 Diff= 9.57D-16
 Largest Abelian subgroup         C1      NOp   1
 Largest concise Abelian subgroup C1      NOp   1
                         Standard orientation:                         
 ---------------------------------------------------------------------
 Center     Atomic      Atomic             Coordinates (Angstroms)
 Number     Number       Type             X           Y           Z
 ---------------------------------------------------------------------
      1          6           0        4.648310   -2.074290   -0.336758
      2          6           0        3.556817   -1.693970   -1.117007
      3          6           0        2.800799   -0.614739   -0.688808
      4          6           0        3.111864    0.065609    0.489494
      5          6           0        4.189503   -0.320102    1.253781
      6          6           0        4.965727   -1.403818    0.835098
      7          1           0        3.310418   -2.235450   -2.022148
      8          1           0        5.813683   -1.723110    1.429163
      9          1           0        5.251760   -2.918292   -0.651622
     10          1           0        4.433617    0.205130    2.171169
     11          7           0        1.686848   -0.043334   -1.290761
     12          6           0        0.998035    0.752594   -0.309578
     13          6           0        2.146867    1.214839    0.649298
     14          6           0        0.939209   -0.756592   -2.293891
     15          1           0        0.134826   -0.119979   -2.662000
     16          1           0        0.507036   -1.688536   -1.908271
     17          6           0        2.818338    2.484091    0.116537
     18          1           0        3.114040    2.373546   -0.928698
     19          1           0        3.716804    2.680247    0.703756
     20          1           0        2.158940    3.350130    0.208101
     21          6           0        1.665977    1.451979    2.070226
     22          1           0        1.275125    0.542817    2.524096
     23          1           0        0.883692    2.215123    2.087986
     24          1           0        2.496315    1.813583    2.680207
     25          8           0        0.158276   -0.142433    0.483194
     26          6           0       -1.164171   -0.199125    0.354848
     27          6           0        0.202582    1.845138   -0.934904
     28          6           0       -1.128758    1.853274   -0.956299
     29          6           0       -1.883342    0.785796   -0.341381
     30          1           0        0.769940    2.624299   -1.424944
     31          1           0       -1.670060    2.653348   -1.448753
     32          6           0       -3.262995    0.689382   -0.405856
     33          6           0       -1.824087   -1.259813    0.975083
     34          6           0       -3.196565   -1.347249    0.905708
     35          6           0       -3.904681   -0.370766    0.213271
     36          1           0       -3.839577    1.436731   -0.934609
     37          1           0       -1.242572   -2.002410    1.506302
     38          1           0       -3.727137   -2.161133    1.379408
     39          7           0       -5.344673   -0.462305    0.139020
     40          8           0       -5.946980    0.401645   -0.473490
     41          8           0       -5.892103   -1.399465    0.692402
     42          1           0        1.587797   -0.997971   -3.136965
 ---------------------------------------------------------------------
 Rotational constants (GHZ):           0.6160890           0.1286473           0.1230187
 Leave Link  202 at Tue May  7 19:44:38 2024, MaxMem=  2684354560 cpu:               0.4 elap:               0.0
 (Enter /s/ls4/groups/g0130/bin/g16/l301.exe)
 Standard basis: def2TZVP (5D, 7F)
 Ernie: Thresh=  0.10000D-02 Tol=  0.10000D-05 Strict=F.
 AO basis set in the form of general basis input (Overlap normalization):
      1 0
 S   6 1.00       0.000000000000
      0.1357534968D+05  0.6064550360D-03
      0.2035233368D+04  0.4697908888D-02
      0.4632256236D+03  0.2433247765D-01
      0.1312001960D+03  0.9739996831D-01
      0.4285301589D+02  0.3019558425D+00
      0.1558418577D+02  0.6623360914D+00
 S   2 1.00       0.000000000000
      0.6206713851D+01  0.6559530854D+00
      0.2576489653D+01  0.3758563329D+00
 S   1 1.00       0.000000000000
      0.5769633942D+00  0.1000000000D+01
 S   1 1.00       0.000000000000
      0.2297283136D+00  0.1000000000D+01
 S   1 1.00       0.000000000000
      0.9516444003D-01  0.1000000000D+01
 P   4 1.00       0.000000000000
      0.3469723224D+02  0.1132722000D-01
      0.7958262283D+01  0.7616965920D-01
      0.2378082688D+01  0.3019225220D+00
      0.8143320818D+00  0.7278502735D+00
 P   1 1.00       0.000000000000
      0.2888754725D+00  0.1000000000D+01
 P   1 1.00       0.000000000000
      0.1005682367D+00  0.1000000000D+01
 D   1 1.00       0.000000000000
      0.1097000000D+01  0.1000000000D+01
 D   1 1.00       0.000000000000
      0.3180000000D+00  0.1000000000D+01
 F   1 1.00       0.000000000000
      0.7610000000D+00  0.1000000000D+01
 ****
      2 0
 S   6 1.00       0.000000000000
      0.1357534968D+05  0.6064550360D-03
      0.2035233368D+04  0.4697908888D-02
      0.4632256236D+03  0.2433247765D-01
      0.1312001960D+03  0.9739996831D-01
      0.4285301589D+02  0.3019558425D+00
      0.1558418577D+02  0.6623360914D+00
 S   2 1.00       0.000000000000
      0.6206713851D+01  0.6559530854D+00
      0.2576489653D+01  0.3758563329D+00
 S   1 1.00       0.000000000000
      0.5769633942D+00  0.1000000000D+01
 S   1 1.00       0.000000000000
      0.2297283136D+00  0.1000000000D+01
 S   1 1.00       0.000000000000
      0.9516444003D-01  0.1000000000D+01
 P   4 1.00       0.000000000000
      0.3469723224D+02  0.1132722000D-01
      0.7958262283D+01  0.7616965920D-01
      0.2378082688D+01  0.3019225220D+00
      0.8143320818D+00  0.7278502735D+00
 P   1 1.00       0.000000000000
      0.2888754725D+00  0.1000000000D+01
 P   1 1.00       0.000000000000
      0.1005682367D+00  0.1000000000D+01
 D   1 1.00       0.000000000000
      0.1097000000D+01  0.1000000000D+01
 D   1 1.00       0.000000000000
      0.3180000000D+00  0.1000000000D+01
 F   1 1.00       0.000000000000
      0.7610000000D+00  0.1000000000D+01
 ****
      3 0
 S   6 1.00       0.000000000000
      0.1357534968D+05  0.6064550360D-03
      0.2035233368D+04  0.4697908888D-02
      0.4632256236D+03  0.2433247765D-01
      0.1312001960D+03  0.9739996831D-01
      0.4285301589D+02  0.3019558425D+00
      0.1558418577D+02  0.6623360914D+00
 S   2 1.00       0.000000000000
      0.6206713851D+01  0.6559530854D+00
      0.2576489653D+01  0.3758563329D+00
 S   1 1.00       0.000000000000
      0.5769633942D+00  0.1000000000D+01
 S   1 1.00       0.000000000000
      0.2297283136D+00  0.1000000000D+01
 S   1 1.00       0.000000000000
      0.9516444003D-01  0.1000000000D+01
 P   4 1.00       0.000000000000
      0.3469723224D+02  0.1132722000D-01
      0.7958262283D+01  0.7616965920D-01
      0.2378082688D+01  0.3019225220D+00
      0.8143320818D+00  0.7278502735D+00
 P   1 1.00       0.000000000000
      0.2888754725D+00  0.1000000000D+01
 P   1 1.00       0.000000000000
      0.1005682367D+00  0.1000000000D+01
 D   1 1.00       0.000000000000
      0.1097000000D+01  0.1000000000D+01
 D   1 1.00       0.000000000000
      0.3180000000D+00  0.1000000000D+01
 F   1 1.00       0.000000000000
      0.7610000000D+00  0.1000000000D+01
 ****
      4 0
 S   6 1.00       0.000000000000
      0.1357534968D+05  0.6064550360D-03
      0.2035233368D+04  0.4697908888D-02
      0.4632256236D+03  0.2433247765D-01
      0.1312001960D+03  0.9739996831D-01
      0.4285301589D+02  0.3019558425D+00
      0.1558418577D+02  0.6623360914D+00
 S   2 1.00       0.000000000000
      0.6206713851D+01  0.6559530854D+00
      0.2576489653D+01  0.3758563329D+00
 S   1 1.00       0.000000000000
      0.5769633942D+00  0.1000000000D+01
 S   1 1.00       0.000000000000
      0.2297283136D+00  0.1000000000D+01
 S   1 1.00       0.000000000000
      0.9516444003D-01  0.1000000000D+01
 P   4 1.00       0.000000000000
      0.3469723224D+02  0.1132722000D-01
      0.7958262283D+01  0.7616965920D-01
      0.2378082688D+01  0.3019225220D+00
      0.8143320818D+00  0.7278502735D+00
 P   1 1.00       0.000000000000
      0.2888754725D+00  0.1000000000D+01
 P   1 1.00       0.000000000000
      0.1005682367D+00  0.1000000000D+01
 D   1 1.00       0.000000000000
      0.1097000000D+01  0.1000000000D+01
 D   1 1.00       0.000000000000
      0.3180000000D+00  0.1000000000D+01
 F   1 1.00       0.000000000000
      0.7610000000D+00  0.1000000000D+01
 ****
      5 0
 S   6 1.00       0.000000000000
      0.1357534968D+05  0.6064550360D-03
      0.2035233368D+04  0.4697908888D-02
      0.4632256236D+03  0.2433247765D-01
      0.1312001960D+03  0.9739996831D-01
      0.4285301589D+02  0.3019558425D+00
      0.1558418577D+02  0.6623360914D+00
 S   2 1.00       0.000000000000
      0.6206713851D+01  0.6559530854D+00
      0.2576489653D+01  0.3758563329D+00
 S   1 1.00       0.000000000000
      0.5769633942D+00  0.1000000000D+01
 S   1 1.00       0.000000000000
      0.2297283136D+00  0.1000000000D+01
 S   1 1.00       0.000000000000
      0.9516444003D-01  0.1000000000D+01
 P   4 1.00       0.000000000000
      0.3469723224D+02  0.1132722000D-01
      0.7958262283D+01  0.7616965920D-01
      0.2378082688D+01  0.3019225220D+00
      0.8143320818D+00  0.7278502735D+00
 P   1 1.00       0.000000000000
      0.2888754725D+00  0.1000000000D+01
 P   1 1.00       0.000000000000
      0.1005682367D+00  0.1000000000D+01
 D   1 1.00       0.000000000000
      0.1097000000D+01  0.1000000000D+01
 D   1 1.00       0.000000000000
      0.3180000000D+00  0.1000000000D+01
 F   1 1.00       0.000000000000
      0.7610000000D+00  0.1000000000D+01
 ****
      6 0
 S   6 1.00       0.000000000000
      0.1357534968D+05  0.6064550360D-03
      0.2035233368D+04  0.4697908888D-02
      0.4632256236D+03  0.2433247765D-01
      0.1312001960D+03  0.9739996831D-01
      0.4285301589D+02  0.3019558425D+00
      0.1558418577D+02  0.6623360914D+00
 S   2 1.00       0.000000000000
      0.6206713851D+01  0.6559530854D+00
      0.2576489653D+01  0.3758563329D+00
 S   1 1.00       0.000000000000
      0.5769633942D+00  0.1000000000D+01
 S   1 1.00       0.000000000000
      0.2297283136D+00  0.1000000000D+01
 S   1 1.00       0.000000000000
      0.9516444003D-01  0.1000000000D+01
 P   4 1.00       0.000000000000
      0.3469723224D+02  0.1132722000D-01
      0.7958262283D+01  0.7616965920D-01
      0.2378082688D+01  0.3019225220D+00
      0.8143320818D+00  0.7278502735D+00
 P   1 1.00       0.000000000000
      0.2888754725D+00  0.1000000000D+01
 P   1 1.00       0.000000000000
      0.1005682367D+00  0.1000000000D+01
 D   1 1.00       0.000000000000
      0.1097000000D+01  0.1000000000D+01
 D   1 1.00       0.000000000000
      0.3180000000D+00  0.1000000000D+01
 F   1 1.00       0.000000000000
      0.7610000000D+00  0.1000000000D+01
 ****
      7 0
 S   3 1.00       0.000000000000
      0.3406134100D+02  0.2543930721D-01
      0.5123574600D+01  0.1900859489D+00
      0.1164662600D+01  0.8524411301D+00
 S   1 1.00       0.000000000000
      0.3272304100D+00  0.1000000000D+01
 S   1 1.00       0.000000000000
      0.1030724100D+00  0.1000000000D+01
 P   1 1.00       0.000000000000
      0.8000000000D+00  0.1000000000D+01
 ****
      8 0
 S   3 1.00       0.000000000000
      0.3406134100D+02  0.2543930721D-01
      0.5123574600D+01  0.1900859489D+00
      0.1164662600D+01  0.8524411301D+00
 S   1 1.00       0.000000000000
      0.3272304100D+00  0.1000000000D+01
 S   1 1.00       0.000000000000
      0.1030724100D+00  0.1000000000D+01
 P   1 1.00       0.000000000000
      0.8000000000D+00  0.1000000000D+01
 ****
      9 0
 S   3 1.00       0.000000000000
      0.3406134100D+02  0.2543930721D-01
      0.5123574600D+01  0.1900859489D+00
      0.1164662600D+01  0.8524411301D+00
 S   1 1.00       0.000000000000
      0.3272304100D+00  0.1000000000D+01
 S   1 1.00       0.000000000000
      0.1030724100D+00  0.1000000000D+01
 P   1 1.00       0.000000000000
      0.8000000000D+00  0.1000000000D+01
 ****
     10 0
 S   3 1.00       0.000000000000
      0.3406134100D+02  0.2543930721D-01
      0.5123574600D+01  0.1900859489D+00
      0.1164662600D+01  0.8524411301D+00
 S   1 1.00       0.000000000000
      0.3272304100D+00  0.1000000000D+01
 S   1 1.00       0.000000000000
      0.1030724100D+00  0.1000000000D+01
 P   1 1.00       0.000000000000
      0.8000000000D+00  0.1000000000D+01
 ****
     11 0
 S   6 1.00       0.000000000000
      0.1973080065D+05  0.5862640263D-03
      0.2957895874D+04  0.4542882059D-02
      0.6732213360D+03  0.2355841345D-01
      0.1906824949D+03  0.9470919329D-01
      0.6229544190D+02  0.2971978491D+00
      0.2265416118D+02  0.6691624690D+00
 S   2 1.00       0.000000000000
      0.8979147743D+01  0.6459668363D+00
      0.3686300237D+01  0.3870057439D+00
 S   1 1.00       0.000000000000
      0.8466007680D+00  0.1000000000D+01
 S   1 1.00       0.000000000000
      0.3364713377D+00  0.1000000000D+01
 S   1 1.00       0.000000000000
      0.1364765367D+00  0.1000000000D+01
 P   4 1.00       0.000000000000
      0.4920038051D+02  0.1144882510D-01
      0.1134679054D+02  0.7842233797D-01
      0.3427397241D+01  0.3081809474D+00
      0.1178552513D+01  0.7202719637D+00
 P   1 1.00       0.000000000000
      0.4164220497D+00  0.1000000000D+01
 P   1 1.00       0.000000000000
      0.1426082601D+00  0.1000000000D+01
 D   1 1.00       0.000000000000
      0.1654000000D+01  0.1000000000D+01
 D   1 1.00       0.000000000000
      0.4690000000D+00  0.1000000000D+01
 F   1 1.00       0.000000000000
      0.1093000000D+01  0.1000000000D+01
 ****
     12 0
 S   6 1.00       0.000000000000
      0.1357534968D+05  0.6064550360D-03
      0.2035233368D+04  0.4697908888D-02
      0.4632256236D+03  0.2433247765D-01
      0.1312001960D+03  0.9739996831D-01
      0.4285301589D+02  0.3019558425D+00
      0.1558418577D+02  0.6623360914D+00
 S   2 1.00       0.000000000000
      0.6206713851D+01  0.6559530854D+00
      0.2576489653D+01  0.3758563329D+00
 S   1 1.00       0.000000000000
      0.5769633942D+00  0.1000000000D+01
 S   1 1.00       0.000000000000
      0.2297283136D+00  0.1000000000D+01
 S   1 1.00       0.000000000000
      0.9516444003D-01  0.1000000000D+01
 P   4 1.00       0.000000000000
      0.3469723224D+02  0.1132722000D-01
      0.7958262283D+01  0.7616965920D-01
      0.2378082688D+01  0.3019225220D+00
      0.8143320818D+00  0.7278502735D+00
 P   1 1.00       0.000000000000
      0.2888754725D+00  0.1000000000D+01
 P   1 1.00       0.000000000000
      0.1005682367D+00  0.1000000000D+01
 D   1 1.00       0.000000000000
      0.1097000000D+01  0.1000000000D+01
 D   1 1.00       0.000000000000
      0.3180000000D+00  0.1000000000D+01
 F   1 1.00       0.000000000000
      0.7610000000D+00  0.1000000000D+01
 ****
     13 0
 S   6 1.00       0.000000000000
      0.1357534968D+05  0.6064550360D-03
      0.2035233368D+04  0.4697908888D-02
      0.4632256236D+03  0.2433247765D-01
      0.1312001960D+03  0.9739996831D-01
      0.4285301589D+02  0.3019558425D+00
      0.1558418577D+02  0.6623360914D+00
 S   2 1.00       0.000000000000
      0.6206713851D+01  0.6559530854D+00
      0.2576489653D+01  0.3758563329D+00
 S   1 1.00       0.000000000000
      0.5769633942D+00  0.1000000000D+01
 S   1 1.00       0.000000000000
      0.2297283136D+00  0.1000000000D+01
 S   1 1.00       0.000000000000
      0.9516444003D-01  0.1000000000D+01
 P   4 1.00       0.000000000000
      0.3469723224D+02  0.1132722000D-01
      0.7958262283D+01  0.7616965920D-01
      0.2378082688D+01  0.3019225220D+00
      0.8143320818D+00  0.7278502735D+00
 P   1 1.00       0.000000000000
      0.2888754725D+00  0.1000000000D+01
 P   1 1.00       0.000000000000
      0.1005682367D+00  0.1000000000D+01
 D   1 1.00       0.000000000000
      0.1097000000D+01  0.1000000000D+01
 D   1 1.00       0.000000000000
      0.3180000000D+00  0.1000000000D+01
 F   1 1.00       0.000000000000
      0.7610000000D+00  0.1000000000D+01
 ****
     14 0
 S   6 1.00       0.000000000000
      0.1357534968D+05  0.6064550360D-03
      0.2035233368D+04  0.4697908888D-02
      0.4632256236D+03  0.2433247765D-01
      0.1312001960D+03  0.9739996831D-01
      0.4285301589D+02  0.3019558425D+00
      0.1558418577D+02  0.6623360914D+00
 S   2 1.00       0.000000000000
      0.6206713851D+01  0.6559530854D+00
      0.2576489653D+01  0.3758563329D+00
 S   1 1.00       0.000000000000
      0.5769633942D+00  0.1000000000D+01
 S   1 1.00       0.000000000000
      0.2297283136D+00  0.1000000000D+01
 S   1 1.00       0.000000000000
      0.9516444003D-01  0.1000000000D+01
 P   4 1.00       0.000000000000
      0.3469723224D+02  0.1132722000D-01
      0.7958262283D+01  0.7616965920D-01
      0.2378082688D+01  0.3019225220D+00
      0.8143320818D+00  0.7278502735D+00
 P   1 1.00       0.000000000000
      0.2888754725D+00  0.1000000000D+01
 P   1 1.00       0.000000000000
      0.1005682367D+00  0.1000000000D+01
 D   1 1.00       0.000000000000
      0.1097000000D+01  0.1000000000D+01
 D   1 1.00       0.000000000000
      0.3180000000D+00  0.1000000000D+01
 F   1 1.00       0.000000000000
      0.7610000000D+00  0.1000000000D+01
 ****
     15 0
 S   3 1.00       0.000000000000
      0.3406134100D+02  0.2543930721D-01
      0.5123574600D+01  0.1900859489D+00
      0.1164662600D+01  0.8524411301D+00
 S   1 1.00       0.000000000000
      0.3272304100D+00  0.1000000000D+01
 S   1 1.00       0.000000000000
      0.1030724100D+00  0.1000000000D+01
 P   1 1.00       0.000000000000
      0.8000000000D+00  0.1000000000D+01
 ****
     16 0
 S   3 1.00       0.000000000000
      0.3406134100D+02  0.2543930721D-01
      0.5123574600D+01  0.1900859489D+00
      0.1164662600D+01  0.8524411301D+00
 S   1 1.00       0.000000000000
      0.3272304100D+00  0.1000000000D+01
 S   1 1.00       0.000000000000
      0.1030724100D+00  0.1000000000D+01
 P   1 1.00       0.000000000000
      0.8000000000D+00  0.1000000000D+01
 ****
     17 0
 S   6 1.00       0.000000000000
      0.1357534968D+05  0.6064550360D-03
      0.2035233368D+04  0.4697908888D-02
      0.4632256236D+03  0.2433247765D-01
      0.1312001960D+03  0.9739996831D-01
      0.4285301589D+02  0.3019558425D+00
      0.1558418577D+02  0.6623360914D+00
 S   2 1.00       0.000000000000
      0.6206713851D+01  0.6559530854D+00
      0.2576489653D+01  0.3758563329D+00
 S   1 1.00       0.000000000000
      0.5769633942D+00  0.1000000000D+01
 S   1 1.00       0.000000000000
      0.2297283136D+00  0.1000000000D+01
 S   1 1.00       0.000000000000
      0.9516444003D-01  0.1000000000D+01
 P   4 1.00       0.000000000000
      0.3469723224D+02  0.1132722000D-01
      0.7958262283D+01  0.7616965920D-01
      0.2378082688D+01  0.3019225220D+00
      0.8143320818D+00  0.7278502735D+00
 P   1 1.00       0.000000000000
      0.2888754725D+00  0.1000000000D+01
 P   1 1.00       0.000000000000
      0.1005682367D+00  0.1000000000D+01
 D   1 1.00       0.000000000000
      0.1097000000D+01  0.1000000000D+01
 D   1 1.00       0.000000000000
      0.3180000000D+00  0.1000000000D+01
 F   1 1.00       0.000000000000
      0.7610000000D+00  0.1000000000D+01
 ****
     18 0
 S   3 1.00       0.000000000000
      0.3406134100D+02  0.2543930721D-01
      0.5123574600D+01  0.1900859489D+00
      0.1164662600D+01  0.8524411301D+00
 S   1 1.00       0.000000000000
      0.3272304100D+00  0.1000000000D+01
 S   1 1.00       0.000000000000
      0.1030724100D+00  0.1000000000D+01
 P   1 1.00       0.000000000000
      0.8000000000D+00  0.1000000000D+01
 ****
     19 0
 S   3 1.00       0.000000000000
      0.3406134100D+02  0.2543930721D-01
      0.5123574600D+01  0.1900859489D+00
      0.1164662600D+01  0.8524411301D+00
 S   1 1.00       0.000000000000
      0.3272304100D+00  0.1000000000D+01
 S   1 1.00       0.000000000000
      0.1030724100D+00  0.1000000000D+01
 P   1 1.00       0.000000000000
      0.8000000000D+00  0.1000000000D+01
 ****
     20 0
 S   3 1.00       0.000000000000
      0.3406134100D+02  0.2543930721D-01
      0.5123574600D+01  0.1900859489D+00
      0.1164662600D+01  0.8524411301D+00
 S   1 1.00       0.000000000000
      0.3272304100D+00  0.1000000000D+01
 S   1 1.00       0.000000000000
      0.1030724100D+00  0.1000000000D+01
 P   1 1.00       0.000000000000
      0.8000000000D+00  0.1000000000D+01
 ****
     21 0
 S   6 1.00       0.000000000000
      0.1357534968D+05  0.6064550360D-03
      0.2035233368D+04  0.4697908888D-02
      0.4632256236D+03  0.2433247765D-01
      0.1312001960D+03  0.9739996831D-01
      0.4285301589D+02  0.3019558425D+00
      0.1558418577D+02  0.6623360914D+00
 S   2 1.00       0.000000000000
      0.6206713851D+01  0.6559530854D+00
      0.2576489653D+01  0.3758563329D+00
 S   1 1.00       0.000000000000
      0.5769633942D+00  0.1000000000D+01
 S   1 1.00       0.000000000000
      0.2297283136D+00  0.1000000000D+01
 S   1 1.00       0.000000000000
      0.9516444003D-01  0.1000000000D+01
 P   4 1.00       0.000000000000
      0.3469723224D+02  0.1132722000D-01
      0.7958262283D+01  0.7616965920D-01
      0.2378082688D+01  0.3019225220D+00
      0.8143320818D+00  0.7278502735D+00
 P   1 1.00       0.000000000000
      0.2888754725D+00  0.1000000000D+01
 P   1 1.00       0.000000000000
      0.1005682367D+00  0.1000000000D+01
 D   1 1.00       0.000000000000
      0.1097000000D+01  0.1000000000D+01
 D   1 1.00       0.000000000000
      0.3180000000D+00  0.1000000000D+01
 F   1 1.00       0.000000000000
      0.7610000000D+00  0.1000000000D+01
 ****
     22 0
 S   3 1.00       0.000000000000
      0.3406134100D+02  0.2543930721D-01
      0.5123574600D+01  0.1900859489D+00
      0.1164662600D+01  0.8524411301D+00
 S   1 1.00       0.000000000000
      0.3272304100D+00  0.1000000000D+01
 S   1 1.00       0.000000000000
      0.1030724100D+00  0.1000000000D+01
 P   1 1.00       0.000000000000
      0.8000000000D+00  0.1000000000D+01
 ****
     23 0
 S   3 1.00       0.000000000000
      0.3406134100D+02  0.2543930721D-01
      0.5123574600D+01  0.1900859489D+00
      0.1164662600D+01  0.8524411301D+00
 S   1 1.00       0.000000000000
      0.3272304100D+00  0.1000000000D+01
 S   1 1.00       0.000000000000
      0.1030724100D+00  0.1000000000D+01
 P   1 1.00       0.000000000000
      0.8000000000D+00  0.1000000000D+01
 ****
     24 0
 S   3 1.00       0.000000000000
      0.3406134100D+02  0.2543930721D-01
      0.5123574600D+01  0.1900859489D+00
      0.1164662600D+01  0.8524411301D+00
 S   1 1.00       0.000000000000
      0.3272304100D+00  0.1000000000D+01
 S   1 1.00       0.000000000000
      0.1030724100D+00  0.1000000000D+01
 P   1 1.00       0.000000000000
      0.8000000000D+00  0.1000000000D+01
 ****
     25 0
 S   6 1.00       0.000000000000
      0.2703238263D+05  0.5722733521D-03
      0.4052387139D+04  0.4435323349D-02
      0.9223272271D+03  0.2302010771D-01
      0.2612407099D+03  0.9282249067D-01
      0.8535464135D+02  0.2937850001D+00
      0.3103503524D+02  0.6740160450D+00
 S   2 1.00       0.000000000000
      0.1226086073D+02  0.6383993703D+00
      0.4998707601D+01  0.3953458713D+00
 S   1 1.00       0.000000000000
      0.1170310816D+01  0.1000000000D+01
 S   1 1.00       0.000000000000
      0.4647474099D+00  0.1000000000D+01
 S   1 1.00       0.000000000000
      0.1850453636D+00  0.1000000000D+01
 P   4 1.00       0.000000000000
      0.6327495480D+02  0.1201833222D-01
      0.1462704938D+02  0.8300542179D-01
      0.4450122346D+01  0.3199174393D+00
      0.1527579965D+01  0.7071554292D+00
 P   1 1.00       0.000000000000
      0.5293511794D+00  0.1000000000D+01
 P   1 1.00       0.000000000000
      0.1747842127D+00  0.1000000000D+01
 D   1 1.00       0.000000000000
      0.2314000000D+01  0.1000000000D+01
 D   1 1.00       0.000000000000
      0.6450000000D+00  0.1000000000D+01
 F   1 1.00       0.000000000000
      0.1428000000D+01  0.1000000000D+01
 ****
     26 0
 S   6 1.00       0.000000000000
      0.1357534968D+05  0.6064550360D-03
      0.2035233368D+04  0.4697908888D-02
      0.4632256236D+03  0.2433247765D-01
      0.1312001960D+03  0.9739996831D-01
      0.4285301589D+02  0.3019558425D+00
      0.1558418577D+02  0.6623360914D+00
 S   2 1.00       0.000000000000
      0.6206713851D+01  0.6559530854D+00
      0.2576489653D+01  0.3758563329D+00
 S   1 1.00       0.000000000000
      0.5769633942D+00  0.1000000000D+01
 S   1 1.00       0.000000000000
      0.2297283136D+00  0.1000000000D+01
 S   1 1.00       0.000000000000
      0.9516444003D-01  0.1000000000D+01
 P   4 1.00       0.000000000000
      0.3469723224D+02  0.1132722000D-01
      0.7958262283D+01  0.7616965920D-01
      0.2378082688D+01  0.3019225220D+00
      0.8143320818D+00  0.7278502735D+00
 P   1 1.00       0.000000000000
      0.2888754725D+00  0.1000000000D+01
 P   1 1.00       0.000000000000
      0.1005682367D+00  0.1000000000D+01
 D   1 1.00       0.000000000000
      0.1097000000D+01  0.1000000000D+01
 D   1 1.00       0.000000000000
      0.3180000000D+00  0.1000000000D+01
 F   1 1.00       0.000000000000
      0.7610000000D+00  0.1000000000D+01
 ****
     27 0
 S   6 1.00       0.000000000000
      0.1357534968D+05  0.6064550360D-03
      0.2035233368D+04  0.4697908888D-02
      0.4632256236D+03  0.2433247765D-01
      0.1312001960D+03  0.9739996831D-01
      0.4285301589D+02  0.3019558425D+00
      0.1558418577D+02  0.6623360914D+00
 S   2 1.00       0.000000000000
      0.6206713851D+01  0.6559530854D+00
      0.2576489653D+01  0.3758563329D+00
 S   1 1.00       0.000000000000
      0.5769633942D+00  0.1000000000D+01
 S   1 1.00       0.000000000000
      0.2297283136D+00  0.1000000000D+01
 S   1 1.00       0.000000000000
      0.9516444003D-01  0.1000000000D+01
 P   4 1.00       0.000000000000
      0.3469723224D+02  0.1132722000D-01
      0.7958262283D+01  0.7616965920D-01
      0.2378082688D+01  0.3019225220D+00
      0.8143320818D+00  0.7278502735D+00
 P   1 1.00       0.000000000000
      0.2888754725D+00  0.1000000000D+01
 P   1 1.00       0.000000000000
      0.1005682367D+00  0.1000000000D+01
 D   1 1.00       0.000000000000
      0.1097000000D+01  0.1000000000D+01
 D   1 1.00       0.000000000000
      0.3180000000D+00  0.1000000000D+01
 F   1 1.00       0.000000000000
      0.7610000000D+00  0.1000000000D+01
 ****
     28 0
 S   6 1.00       0.000000000000
      0.1357534968D+05  0.6064550360D-03
      0.2035233368D+04  0.4697908888D-02
      0.4632256236D+03  0.2433247765D-01
      0.1312001960D+03  0.9739996831D-01
      0.4285301589D+02  0.3019558425D+00
      0.1558418577D+02  0.6623360914D+00
 S   2 1.00       0.000000000000
      0.6206713851D+01  0.6559530854D+00
      0.2576489653D+01  0.3758563329D+00
 S   1 1.00       0.000000000000
      0.5769633942D+00  0.1000000000D+01
 S   1 1.00       0.000000000000
      0.2297283136D+00  0.1000000000D+01
 S   1 1.00       0.000000000000
      0.9516444003D-01  0.1000000000D+01
 P   4 1.00       0.000000000000
      0.3469723224D+02  0.1132722000D-01
      0.7958262283D+01  0.7616965920D-01
      0.2378082688D+01  0.3019225220D+00
      0.8143320818D+00  0.7278502735D+00
 P   1 1.00       0.000000000000
      0.2888754725D+00  0.1000000000D+01
 P   1 1.00       0.000000000000
      0.1005682367D+00  0.1000000000D+01
 D   1 1.00       0.000000000000
      0.1097000000D+01  0.1000000000D+01
 D   1 1.00       0.000000000000
      0.3180000000D+00  0.1000000000D+01
 F   1 1.00       0.000000000000
      0.7610000000D+00  0.1000000000D+01
 ****
     29 0
 S   6 1.00       0.000000000000
      0.1357534968D+05  0.6064550360D-03
      0.2035233368D+04  0.4697908888D-02
      0.4632256236D+03  0.2433247765D-01
      0.1312001960D+03  0.9739996831D-01
      0.4285301589D+02  0.3019558425D+00
      0.1558418577D+02  0.6623360914D+00
 S   2 1.00       0.000000000000
      0.6206713851D+01  0.6559530854D+00
      0.2576489653D+01  0.3758563329D+00
 S   1 1.00       0.000000000000
      0.5769633942D+00  0.1000000000D+01
 S   1 1.00       0.000000000000
      0.2297283136D+00  0.1000000000D+01
 S   1 1.00       0.000000000000
      0.9516444003D-01  0.1000000000D+01
 P   4 1.00       0.000000000000
      0.3469723224D+02  0.1132722000D-01
      0.7958262283D+01  0.7616965920D-01
      0.2378082688D+01  0.3019225220D+00
      0.8143320818D+00  0.7278502735D+00
 P   1 1.00       0.000000000000
      0.2888754725D+00  0.1000000000D+01
 P   1 1.00       0.000000000000
      0.1005682367D+00  0.1000000000D+01
 D   1 1.00       0.000000000000
      0.1097000000D+01  0.1000000000D+01
 D   1 1.00       0.000000000000
      0.3180000000D+00  0.1000000000D+01
 F   1 1.00       0.000000000000
      0.7610000000D+00  0.1000000000D+01
 ****
     30 0
 S   3 1.00       0.000000000000
      0.3406134100D+02  0.2543930721D-01
      0.5123574600D+01  0.1900859489D+00
      0.1164662600D+01  0.8524411301D+00
 S   1 1.00       0.000000000000
      0.3272304100D+00  0.1000000000D+01
 S   1 1.00       0.000000000000
      0.1030724100D+00  0.1000000000D+01
 P   1 1.00       0.000000000000
      0.8000000000D+00  0.1000000000D+01
 ****
     31 0
 S   3 1.00       0.000000000000
      0.3406134100D+02  0.2543930721D-01
      0.5123574600D+01  0.1900859489D+00
      0.1164662600D+01  0.8524411301D+00
 S   1 1.00       0.000000000000
      0.3272304100D+00  0.1000000000D+01
 S   1 1.00       0.000000000000
      0.1030724100D+00  0.1000000000D+01
 P   1 1.00       0.000000000000
      0.8000000000D+00  0.1000000000D+01
 ****
     32 0
 S   6 1.00       0.000000000000
      0.1357534968D+05  0.6064550360D-03
      0.2035233368D+04  0.4697908888D-02
      0.4632256236D+03  0.2433247765D-01
      0.1312001960D+03  0.9739996831D-01
      0.4285301589D+02  0.3019558425D+00
      0.1558418577D+02  0.6623360914D+00
 S   2 1.00       0.000000000000
      0.6206713851D+01  0.6559530854D+00
      0.2576489653D+01  0.3758563329D+00
 S   1 1.00       0.000000000000
[...]
     8  H   -0.000000  -0.000002   0.000001   0.000004  -0.000001  -0.000009
     9  H   -0.000000   0.000000  -0.000002  -0.000000   0.000000   0.000000
    10  H    0.001105  -0.000114   0.003207  -0.000148  -0.000146   0.001729
    11  N   -0.000303   0.000699   0.006762   0.000178  -0.000099  -0.000120
    12  C    0.010768  -0.028645  -0.030766  -0.015071  -0.006173   0.011684
    13  C   -0.021163  -0.024211   0.284795  -0.039500  -0.051282  -0.025942
    14  C    0.000069  -0.000085  -0.000613  -0.000031  -0.000007   0.000016
    15  H    0.000003   0.000026  -0.000155  -0.000002  -0.000004   0.000003
    16  H   -0.000001  -0.000007   0.000076   0.000003   0.000005  -0.000004
    17  C    0.399243   0.404945  -0.061258   0.009356  -0.004928  -0.006625
    18  H   -0.016534  -0.024942   0.010254  -0.000374   0.000082  -0.000062
    19  H    0.514045  -0.018185  -0.007745  -0.000111  -0.000274   0.002362
    20  H   -0.018185   0.531303  -0.005616  -0.000114   0.002184   0.000061
    21  C   -0.007745  -0.005616   5.045842   0.415097   0.414166   0.400422
    22  H   -0.000111  -0.000114   0.415097   0.519702  -0.019212  -0.021630
    23  H   -0.000274   0.002184   0.414166  -0.019212   0.530214  -0.021877
    24  H    0.002362   0.000061   0.400422  -0.021630  -0.021877   0.529028
    25  O   -0.000214   0.000066   0.002412   0.005525   0.000315   0.001290
    26  C   -0.000040  -0.000077   0.001050  -0.001488  -0.000555   0.000244
    27  C    0.000584   0.007000  -0.000712   0.000866   0.003753  -0.000551
    28  C   -0.000101   0.000604  -0.001662   0.000317   0.000834   0.000011
    29  C    0.000029   0.000158  -0.000200   0.000165  -0.000222  -0.000048
    30  H    0.000401  -0.001316   0.001243  -0.000124   0.000191  -0.000054
    31  H   -0.000003   0.000023  -0.000035   0.000007   0.000021   0.000001
    32  C    0.000000   0.000003   0.000011  -0.000035  -0.000052  -0.000002
    33  C   -0.000003  -0.000013  -0.000739   0.000821   0.000158  -0.000017
    34  C    0.000000   0.000000  -0.000036   0.000021  -0.000001  -0.000001
    35  C   -0.000000   0.000000   0.000015   0.000010   0.000004   0.000000
    36  H   -0.000000   0.000000  -0.000001   0.000000  -0.000001   0.000000
    37  H   -0.000000  -0.000000  -0.000235   0.000314   0.000008   0.000001
    38  H   -0.000000   0.000000   0.000001  -0.000001   0.000000   0.000000
    39  N   -0.000000   0.000000   0.000000  -0.000000  -0.000000   0.000000
    40  O   -0.000000   0.000000   0.000000   0.000000  -0.000000  -0.000000
    41  O    0.000000   0.000000   0.000000   0.000000  -0.000000  -0.000000
    42  H   -0.000009   0.000008   0.000020   0.000000  -0.000001   0.000001
              25         26         27         28         29         30
     1  C   -0.000351   0.000123  -0.000119   0.000024   0.000003   0.000001
     2  C   -0.000787  -0.000006  -0.001719   0.000025  -0.000348   0.000001
     3  C    0.025961  -0.009840   0.026634  -0.003351   0.001556  -0.000607
     4  C   -0.003532   0.004729  -0.033633   0.002081  -0.000795  -0.000399
     5  C   -0.004095   0.000512  -0.002651   0.000266  -0.000085  -0.000047
     6  C    0.000318   0.000060   0.000097  -0.000010   0.000003   0.000001
     7  H    0.000058  -0.000063   0.000102  -0.000033   0.000002   0.000000
     8  H   -0.000001   0.000000  -0.000000   0.000000   0.000000  -0.000000
     9  H   -0.000002   0.000001  -0.000002   0.000000  -0.000000   0.000000
    10  H   -0.000080  -0.000006  -0.000049  -0.000003   0.000002  -0.000003
    11  N   -0.079007   0.044154  -0.074857   0.009701  -0.007418   0.002656
    12  C    0.226583  -0.002345   0.141363   0.013822  -0.057994  -0.054017
    13  C   -0.035822  -0.015620   0.041765  -0.004903   0.006479  -0.007292
    14  C    0.005323  -0.004645  -0.011302  -0.012079   0.011193   0.000421
    15  H   -0.000193  -0.009491   0.004503  -0.010020   0.005516   0.000630
    16  H    0.002826  -0.002800   0.003192  -0.001856  -0.002470  -0.000061
    17  C    0.004462   0.000483  -0.010086   0.001443  -0.000514   0.001773
    18  H    0.000041   0.000154  -0.006726   0.000865  -0.000188  -0.000095
    19  H   -0.000214  -0.000040   0.000584  -0.000101   0.000029   0.000401
    20  H    0.000066  -0.000077   0.007000   0.000604   0.000158  -0.001316
    21  C    0.002412   0.001050  -0.000712  -0.001662  -0.000200   0.001243
    22  H    0.005525  -0.001488   0.000866   0.000317   0.000165  -0.000124
    23  H    0.000315  -0.000555   0.003753   0.000834  -0.000222   0.000191
    24  H    0.001290   0.000244  -0.000551   0.000011  -0.000048  -0.000054
    25  O    7.858435   0.341305  -0.029982   0.000578  -0.061224   0.003711
    26  C    0.341305   5.113021  -0.087027  -0.049128   0.209343  -0.000170
    27  C   -0.029982  -0.087027   5.427485   0.451510   0.055566   0.444273
    28  C    0.000578  -0.049128   0.451510   5.234683   0.269782  -0.041295
    29  C   -0.061224   0.209343   0.055566   0.269782   5.141403   0.010654
    30  H    0.003711  -0.000170   0.444273  -0.041295   0.010654   0.488936
    31  H   -0.000491   0.003008  -0.051616   0.458936  -0.065451  -0.008296
    32  C    0.007231   0.070960   0.010520  -0.134684   0.292901  -0.000378
    33  C   -0.033241   0.306052   0.003330   0.023796   0.045376  -0.000119
    34  C    0.004861   0.086490   0.000631  -0.005669  -0.127995  -0.000000
    35  C   -0.000107  -0.164297  -0.001464   0.026254   0.076787   0.000006
    36  H   -0.000114   0.012555   0.001150  -0.007938  -0.047894  -0.000036
    37  H    0.005808  -0.080027   0.000206  -0.000275   0.017247  -0.000010
    38  H   -0.000116   0.012052  -0.000019   0.000098  -0.002927   0.000000
    39  N    0.000003   0.000914  -0.000008  -0.000431   0.003400  -0.000000
    40  O    0.000000   0.002527  -0.000020  -0.000937  -0.005686   0.000000
    41  O    0.000000   0.001388  -0.000001  -0.000024  -0.002841   0.000000
    42  H   -0.000793   0.000864  -0.003308   0.001420  -0.000061  -0.000006
              31         32         33         34         35         36
     1  C    0.000000  -0.000000  -0.000054  -0.000003   0.000000  -0.000000
     2  C   -0.000002  -0.000002   0.000932  -0.000000  -0.000001  -0.000000
     3  C   -0.000012  -0.000012   0.002406   0.000092   0.000045   0.000003
     4  C    0.000093  -0.000029  -0.001344  -0.000038   0.000006  -0.000002
     5  C    0.000000   0.000001  -0.000089  -0.000007  -0.000000  -0.000000
     6  C    0.000000  -0.000000  -0.000019  -0.000000   0.000000   0.000000
     7  H   -0.000000   0.000001   0.000010   0.000001   0.000000   0.000000
     8  H   -0.000000   0.000000  -0.000000   0.000000  -0.000000   0.000000
     9  H   -0.000000   0.000000   0.000000  -0.000000  -0.000000  -0.000000
    10  H   -0.000000   0.000000  -0.000002  -0.000000  -0.000000   0.000000
    11  N   -0.000401  -0.001187  -0.001610  -0.000771   0.000231  -0.000017
    12  C    0.012581  -0.003939  -0.015948   0.000767  -0.000511   0.000065
    13  C   -0.000235   0.000199   0.000416   0.000215  -0.000039   0.000004
    14  C   -0.000304   0.001892   0.000314  -0.000636   0.000222  -0.000079
    15  H    0.000239  -0.000783  -0.001117   0.000102   0.000265  -0.000008
    16  H   -0.000086   0.000893   0.004226   0.000174   0.000123  -0.000003
    17  C    0.000037  -0.000035   0.000172  -0.000003   0.000002   0.000000
    18  H   -0.000011   0.000001   0.000008   0.000000  -0.000000   0.000000
    19  H   -0.000003   0.000000  -0.000003   0.000000  -0.000000  -0.000000
    20  H    0.000023   0.000003  -0.000013   0.000000   0.000000   0.000000
    21  C   -0.000035   0.000011  -0.000739  -0.000036   0.000015  -0.000001
    22  H    0.000007  -0.000035   0.000821   0.000021   0.000010   0.000000
    23  H    0.000021  -0.000052   0.000158  -0.000001   0.000004  -0.000001
    24  H    0.000001  -0.000002  -0.000017  -0.000001   0.000000   0.000000
    25  O   -0.000491   0.007231  -0.033241   0.004861  -0.000107  -0.000114
    26  C    0.003008   0.070960   0.306052   0.086490  -0.164297   0.012555
    27  C   -0.051616   0.010520   0.003330   0.000631  -0.001464   0.001150
    28  C    0.458936  -0.134684   0.023796  -0.005669   0.026254  -0.007938
    29  C   -0.065451   0.292901   0.045376  -0.127995   0.076787  -0.047894
    30  H   -0.008296  -0.000378  -0.000119  -0.000000   0.000006  -0.000036
    31  H    0.502117  -0.004963   0.000057  -0.000164   0.002588   0.001842
    32  C   -0.004963   5.541406  -0.149969  -0.021950   0.253218   0.433986
    33  C    0.000057  -0.149969   5.250016   0.332694   0.082239  -0.003147
    34  C   -0.000164  -0.021950   0.332694   5.200474   0.274779   0.006168
    35  C    0.002588   0.253218   0.082239   0.274779   5.280548  -0.055273
    36  H    0.001842   0.433986  -0.003147   0.006168  -0.055273   0.468939
    37  H    0.000020  -0.004450   0.456009  -0.053524   0.016207   0.000043
    38  H   -0.000003   0.006966  -0.042321   0.428961  -0.052219  -0.000311
    39  N   -0.000016  -0.059872   0.002205  -0.048658   0.438124  -0.005654
    40  O   -0.000035   0.030645  -0.002446   0.025648  -0.143084   0.026951
    41  O   -0.000001   0.025181  -0.002449   0.032394  -0.142704   0.001189
    42  H    0.000037  -0.000179   0.000028  -0.000037   0.000007  -0.000000
              37         38         39         40         41         42
     1  C   -0.000013   0.000000   0.000000  -0.000000   0.000000   0.002383
     2  C    0.000036   0.000000  -0.000000   0.000000  -0.000000  -0.001735
     3  C    0.000524  -0.000004  -0.000000  -0.000000   0.000000  -0.014709
     4  C    0.000054   0.000001   0.000000  -0.000000   0.000000   0.004198
     5  C   -0.000018   0.000000  -0.000000  -0.000000   0.000000   0.000500
     6  C    0.000007  -0.000000   0.000000   0.000000  -0.000000  -0.000401
     7  H    0.000002  -0.000000   0.000000  -0.000000  -0.000000  -0.001968
     8  H   -0.000000  -0.000000   0.000000  -0.000000  -0.000000  -0.000001
     9  H   -0.000000   0.000000  -0.000000  -0.000000   0.000000   0.000014
    10  H   -0.000000  -0.000000   0.000000  -0.000000  -0.000000   0.000002
    11  N   -0.000232   0.000001   0.000000  -0.000000   0.000000  -0.023779
    12  C   -0.000898   0.000015   0.000007   0.000000  -0.000001   0.008104
    13  C    0.000159  -0.000002  -0.000000   0.000000  -0.000000  -0.002316
    14  C   -0.000050  -0.000001  -0.000005   0.000002  -0.000001   0.391043
    15  H    0.000005  -0.000001   0.000002   0.000000   0.000000  -0.008666
    16  H    0.000125   0.000005  -0.000009  -0.000002  -0.000000  -0.041248
    17  C    0.000012   0.000000  -0.000000  -0.000000  -0.000000   0.000084
    18  H   -0.000000   0.000000  -0.000000   0.000000   0.000000  -0.000162
    19  H   -0.000000  -0.000000  -0.000000  -0.000000   0.000000  -0.000009
    20  H   -0.000000   0.000000   0.000000   0.000000   0.000000   0.000008
    21  C   -0.000235   0.000001   0.000000   0.000000   0.000000   0.000020
    22  H    0.000314  -0.000001  -0.000000   0.000000   0.000000   0.000000
    23  H    0.000008   0.000000  -0.000000  -0.000000  -0.000000  -0.000001
    24  H    0.000001   0.000000   0.000000  -0.000000  -0.000000   0.000001
    25  O    0.005808  -0.000116   0.000003   0.000000   0.000000  -0.000793
    26  C   -0.080027   0.012052   0.000914   0.002527   0.001388   0.000864
    27  C    0.000206  -0.000019  -0.000008  -0.000020  -0.000001  -0.003308
    28  C   -0.000275   0.000098  -0.000431  -0.000937  -0.000024   0.001420
    29  C    0.017247  -0.002927   0.003400  -0.005686  -0.002841  -0.000061
    30  H   -0.000010   0.000000  -0.000000   0.000000   0.000000  -0.000006
    31  H    0.000020  -0.000003  -0.000016  -0.000035  -0.000001   0.000037
    32  C   -0.004450   0.006966  -0.059872   0.030645   0.025181  -0.000179
    33  C    0.456009  -0.042321   0.002205  -0.002446  -0.002449   0.000028
    34  C   -0.053524   0.428961  -0.048658   0.025648   0.032394  -0.000037
    35  C    0.016207  -0.052219   0.438124  -0.143084  -0.142704   0.000007
    36  H    0.000043  -0.000311  -0.005654   0.026951   0.001189  -0.000000
    37  H    0.503343  -0.008431  -0.000131   0.000000  -0.000122  -0.000000
    38  H   -0.008431   0.472293  -0.006059   0.001020   0.023352  -0.000000
    39  N   -0.000131  -0.006059   5.461861   0.381891   0.381244   0.000000
    40  O    0.000000   0.001020   0.381891   8.167419  -0.113041   0.000000
    41  O   -0.000122   0.023352   0.381244  -0.113041   8.168107   0.000000
    42  H   -0.000000  -0.000000   0.000000   0.000000   0.000000   0.536827
 Mulliken charges:
               1
     1  C   -0.124054
     2  C   -0.334777
     3  C    0.107778
     4  C   -0.102410
     5  C   -0.240063
     6  C   -0.188542
     7  H    0.139580
     8  H    0.128014
     9  H    0.133663
    10  H    0.129502
    11  N    0.000071
    12  C    0.389797
    13  C    0.277901
    14  C   -0.351096
    15  H    0.164848
    16  H    0.139249
    17  C   -0.459240
    18  H    0.153988
    19  H    0.147125
    20  H    0.142903
    21  C   -0.429405
    22  H    0.142817
    23  H    0.138194
    24  H    0.141127
    25  O   -0.246962
    26  C    0.215636
    27  C   -0.308679
    28  C   -0.222652
    29  C    0.236794
    30  H    0.159426
    31  H    0.150518
    32  C   -0.293493
    33  C   -0.256619
    34  C   -0.134982
    35  C    0.108018
    36  H    0.167581
    37  H    0.148287
    38  H    0.167650
    39  N    0.451193
    40  O   -0.370853
    41  O   -0.371672
    42  H    0.153838
 Sum of Mulliken charges =  -0.00000
 Mulliken charges with hydrogens summed into heavy atoms:
               1
     1  C    0.009608
     2  C   -0.195197
     3  C    0.107778
     4  C   -0.102410
     5  C   -0.110561
     6  C   -0.060527
    11  N    0.000071
    12  C    0.389797
    13  C    0.277901
    14  C    0.106839
    17  C   -0.015223
    21  C   -0.007267
    25  O   -0.246962
    26  C    0.215636
    27  C   -0.149253
    28  C   -0.072134
    29  C    0.236794
    32  C   -0.125912
    33  C   -0.108332
    34  C    0.032667
    35  C    0.108018
    39  N    0.451193
    40  O   -0.370853
    41  O   -0.371672
 Electronic spatial extent (au):  <R**2>=           8544.3401
 Charge=             -0.0000 electrons
 Dipole moment (field-independent basis, Debye):
    X=              5.5380    Y=              3.2443    Z=             -1.1456  Tot=              6.5198
 Quadrupole moment (field-independent basis, Debye-Ang):
   XX=           -195.9794   YY=           -131.0127   ZZ=           -133.5889
   XY=             -2.5156   XZ=              0.1732   YZ=             -1.0799
 Traceless Quadrupole moment (field-independent basis, Debye-Ang):
   XX=            -42.4524   YY=             22.5143   ZZ=             19.9381
   XY=             -2.5156   XZ=              0.1732   YZ=             -1.0799
 Octapole moment (field-independent basis, Debye-Ang**2):
  XXX=            315.4308  YYY=             11.0746  ZZZ=             -5.1832  XYY=              2.3228
  XXY=             59.7565  XXZ=             31.7871  XZZ=            -12.3177  YZZ=             -3.4617
  YYZ=            -16.2134  XYZ=             10.7553
 Hexadecapole moment (field-independent basis, Debye-Ang**3):
 XXXX=         -11189.6466 YYYY=          -1677.2411 ZZZZ=           -985.3725 XXXY=           -247.7981
 XXXZ=             72.4893 YYYX=             -9.9657 YYYZ=            -11.6383 ZZZX=             -3.3284
 ZZZY=             -8.1131 XXYY=          -1732.2280 XXZZ=          -1621.9830 YYZZ=           -425.2080
 XXYZ=             44.6755 YYXZ=             -9.9329 ZZXY=             23.5774
 N-N= 2.063256127983D+03 E-N=-6.616737913933D+03  KE= 1.064024412547D+03
 No NMR shielding tensors so no spin-rotation constants.
 Leave Link  601 at Wed May  8 12:59:26 2024, MaxMem=  2684354560 cpu:              21.9 elap:               1.1
 (Enter /s/ls4/groups/g0130/bin/g16/l9999.exe)
 Electronic transition elements 
                 1             2             3             4             5 
      1  -0.106909D+04 -0.106904D+04 -0.106904D+04 -0.106903D+04 -0.106902D+04
      2   0.655099D+00  0.110305D+01 -0.140386D+01 -0.169804D-02  0.579807D+00
      3  -0.191542D+00 -0.153972D+00  0.770843D+00 -0.159717D-02 -0.289486D+00
      4  -0.180624D-01  0.376768D+00 -0.376056D+00 -0.273143D-01 -0.844955D-01
      5  -0.447834D-01 -0.124441D+00  0.167077D+00  0.261499D-03 -0.782940D-01
      6   0.130779D-01  0.173175D-01 -0.918406D-01  0.325805D-03  0.391579D-01
      7   0.125806D-02 -0.432605D-01  0.446190D-01  0.340397D-02  0.114238D-01
      8   0.678961D-01  0.331614D-03 -0.119077D-01 -0.499476D+00  0.731818D-01
      9  -0.536953D-01 -0.305432D+00 -0.167502D+00  0.358447D+00  0.625746D-01
     10   0.605411D-01  0.893802D-01 -0.274237D+00 -0.385580D-01  0.163620D+00
     11  -0.102605D+00  0.288721D+00  0.144159D+01  0.717013D-02 -0.494278D+00
     12  -0.140734D-01  0.794294D-02  0.318109D+00  0.561255D-02 -0.140681D+00
     13   0.812012D-03 -0.305974D-01 -0.954786D-01 -0.100395D-01  0.365054D-02
     14   0.994154D-01  0.630338D-01 -0.828878D+00  0.171191D-02  0.355942D+00
     15   0.524399D-01  0.195003D+00  0.176918D+00  0.341351D-01  0.133086D+00
     16  -0.224311D-01 -0.774774D-01 -0.647705D-01  0.180465D-01 -0.439864D-01
 1\1\GINC-N002\FOpt\RPBE1PBE TD-FC\def2TZVP\C19H18N2O3\ARTD\08-May-2024
 \0\\#p PBE1PBE/def2TZVP EmpiricalDispersion=GD3BJ SCRF(PCM,Solvent=ace
 tonitrile) TD(Singlets,NStates=5, root=1) opt guess=(read) geom=(allch
 eck) gfinput\\TITLE\\0,1\C,-5.3610073695,1.249274969,-1.5163959467\C,-
 4.4038605836,0.7398961503,-0.6782956381\C,-3.4871710841,1.6531538207,-
 0.1211002082\C,-3.5644766714,3.0481968175,-0.3786660471\C,-4.529285059
 8,3.5302172985,-1.2235875274\C,-5.4238110072,2.6262405118,-1.795288109
 4\H,-4.3348642386,-0.3195998214,-0.4754633546\H,-6.1922206313,2.990319
 0837,-2.4647746238\H,-6.0762810367,0.5840897351,-1.9818363482\H,-4.608
 560923,4.5880499574,-1.4386763569\N,-2.4481492627,1.3892131129,0.67184
 2337\C,-1.5539835467,2.6017199654,0.7782425357\C,-2.5508870987,3.76109
 67774,0.465532504\C,-2.0953654934,0.0854227383,1.1604758162\H,-1.46343
 09987,0.1973610967,2.0378379653\H,-1.5473930719,-0.4723717836,0.395597
 6369\C,-3.2676558839,4.2376107416,1.7361608781\H,-3.6809487745,3.40593
 21663,2.310484097\H,-4.0905208362,4.8955182251,1.4548568623\H,-2.58430
 3922,4.8032487769,2.3708047717\C,-1.8808365323,4.9381404083,-0.2219567
 665\H,-1.4603215721,4.6589011228,-1.185770319\H,-1.0811446235,5.332871
 4415,0.4075006345\H,-2.6107039861,5.7352950594,-0.3736600642\O,-0.6695
 711411,2.5396738127,-0.3052393266\C,0.4368857671,1.7303135797,-0.18066
 6992\C,-0.8474405358,2.6551234061,2.0915594392\C,0.3771934114,2.139444
 7975,2.2078634189\C,1.0276840181,1.5295642419,1.0679444269\H,-1.366323
 2024,3.0803016461,2.9382074266\H,0.8945695894,2.1545869451,3.160949205
 8\C,2.1777962692,0.7612659372,1.1663355111\C,1.0021273453,1.1971348365
 ,-1.3272061852\C,2.144847817,0.4272747731,-1.2319670023\C,2.7433331086
 ,0.1935075006,0.018666397\H,2.6429963792,0.5873548041,2.1267601862\H,0
 .5359566263,1.3817202057,-2.2877487894\H,2.5929256698,-0.0126444018,-2
 .1111072125\N,3.8834552802,-0.594625838,0.1160920321\O,4.404353756,-0.
 7935836212,1.2617975016\O,4.3813779015,-1.1009985836,-0.9416614701\H,-
 2.9960639059,-0.4640642803,1.429742798\\Version=ES64L-G16RevA.03\State
 =1-A\HF=-1069.1575289\RMSD=8.460e-09\RMSF=1.158e-05\Dipole=-12.6775127
 ,4.4955373,0.2537691\PG=C01 [X(C19H18N2O3)]\\@


 YOU CAN LEAD A BOY TO COLLEGE....
 BUT YOU CANNOT MAKE HIM THINK....
           ELBERT HUBBARD
 Job cpu time:      17 days  5 hours 45 minutes 44.1 seconds.
 Elapsed time:       0 days 17 hours 14 minutes 36.9 seconds.
 File lengths (MBytes):  RWF=   2537 Int=      0 D2E=      0 Chk=    181 Scr=      1
 Normal termination of Gaussian 16 at Wed May  8 12:59:27 2024.
