 Entering Gaussian System, Link 0=/s/ls4/groups/g0130/bin/g16/g16
 Input=sp1_s1_m062x.gjf
 Output=sp1_s1_m062x.log
 Initial command:
 /s/ls4/groups/g0130/bin/g16/l1.exe "/dev/shm/scratch_artd/Gau-30839.inp" -scrdir="/dev/shm/scratch_artd/"
 Entering Link 1 = /s/ls4/groups/g0130/bin/g16/l1.exe PID=     30840.
  
 Copyright (c) 1988,1990,1992,1993,1995,1998,2003,2009,2016,
            Gaussian, Inc.  All Rights Reserved.
  
 This is part of the Gaussian(R) 16 program.  It is based on
 the Gaussian(R) 09 system (copyright 2009, Gaussian, Inc.),
 the Gaussian(R) 03 system (copyright 2003, Gaussian, Inc.),
 the Gaussian(R) 98 system (copyright 1998, Gaussian, Inc.),
 the Gaussian(R) 94 system (copyright 1995, Gaussian, Inc.),
 the Gaussian 92(TM) system (copyright 1992, Gaussian, Inc.),
 the Gaussian 90(TM) system (copyright 1990, Gaussian, Inc.),
 the Gaussian 88(TM) system (copyright 1988, Gaussian, Inc.),
 the Gaussian 86(TM) system (copyright 1986, Carnegie Mellon
 University), and the Gaussian 82(TM) system (copyright 1983,
 Carnegie Mellon University). Gaussian is a federally registered
 trademark of Gaussian, Inc.
  
 This software contains proprietary and confidential information,
 including trade secrets, belonging to Gaussian, Inc.
  
 This software is provided under written license and may be
 used, copied, transmitted, or stored only in accord with that
 written license.
  
 The following legend is applicable only to US Government
 contracts under FAR:
  
                    RESTRICTED RIGHTS LEGEND
  
 Use, reproduction and disclosure by the US Government is
 subject to restrictions as set forth in subparagraphs (a)
 and (c) of the Commercial Computer Software - Restricted
 Rights clause in FAR 52.227-19.
  
 Gaussian, Inc.
 340 Quinnipiac St., Bldg. 40, Wallingford CT 06492
  
  
 ---------------------------------------------------------------
 Warning -- This program may not be used in any manner that
 competes with the business of Gaussian, Inc. or will provide
 assistance to any competitor of Gaussian, Inc.  The licensee
 of this program is prohibited from giving any competitor of
 Gaussian, Inc. access to this program.  By using this program,
 the user acknowledges that Gaussian, Inc. is engaged in the
 business of creating and licensing software in the field of
 computational chemistry and represents and warrants to the
 licensee that it is not a competitor of Gaussian, Inc. and that
 it will not use this program in any manner prohibited above.
 ---------------------------------------------------------------
  

 Cite this work as:
 Gaussian 16, Revision A.03,
 M. J. Frisch, G. W. Trucks, H. B. Schlegel, G. E. Scuseria, 
 M. A. Robb, J. R. Cheeseman, G. Scalmani, V. Barone, 
 G. A. Petersson, H. Nakatsuji, X. Li, M. Caricato, A. V. Marenich, 
 J. Bloino, B. G. Janesko, R. Gomperts, B. Mennucci, H. P. Hratchian, 
 J. V. Ortiz, A. F. Izmaylov, J. L. Sonnenberg, D. Williams-Young, 
 F. Ding, F. Lipparini, F. Egidi, J. Goings, B. Peng, A. Petrone, 
 T. Henderson, D. Ranasinghe, V. G. Zakrzewski, J. Gao, N. Rega, 
 G. Zheng, W. Liang, M. Hada, M. Ehara, K. Toyota, R. Fukuda, 
 J. Hasegawa, M. Ishida, T. Nakajima, Y. Honda, O. Kitao, H. Nakai, 
 T. Vreven, K. Throssell, J. A. Montgomery, Jr., J. E. Peralta, 
 F. Ogliaro, M. J. Bearpark, J. J. Heyd, E. N. Brothers, K. N. Kudin, 
 V. N. Staroverov, T. A. Keith, R. Kobayashi, J. Normand, 
 K. Raghavachari, A. P. Rendell, J. C. Burant, S. S. Iyengar, 
 J. Tomasi, M. Cossi, J. M. Millam, M. Klene, C. Adamo, R. Cammi, 
 J. W. Ochterski, R. L. Martin, K. Morokuma, O. Farkas, 
 J. B. Foresman, and D. J. Fox, Gaussian, Inc., Wallingford CT, 2016.
 
 ******************************************
 Gaussian 16:  ES64L-G16RevA.03 25-Dec-2016
                 7-May-2024 
 ******************************************
 %nprocshared=24
 Will use up to   24 processors via shared memory.
 %mem=20GB
 %oldchk=sp1_gs_m062x.chk
 %chk=sp1_s1_m062x.chk
 Copying data from "sp1_gs_m062x.chk" to current chk file "sp1_s1_m062x.chk"
 IOpt=  2 FromEx=T IUOpen= 4 IOptOp= 5 NList=   0 IFRang= 0 IUIn= 4 IUOut= 2.
 ----------------------------------------------------------------------
 #p M062X/def2TZVP SCRF(PCM,Solvent=acetonitrile) TD(Singlets,NStates=5
 , root=1) integral=ultrafine opt guess=(read) geom=(allcheck) gfinput
 ----------------------------------------------------------------------
 1/18=20,19=15,26=6,29=7,38=1/1,3;
 2/9=110,12=2,40=1/2;
 3/5=44,7=101,11=9,14=-4,24=10,25=1,30=1,70=2201,71=1,72=2,74=-55,75=-5,116=-2/1,2,3,8;
 4/5=1/1;
 5/5=2,38=6,53=2/2;
 8/6=1,10=1,107=1,108=5/1;
 9/8=1,15=2,41=5,42=1,48=1,70=2/14;
 10/5=4,28=1/2;
 6/7=2,8=2,9=2,10=2/1;
 7/12=6,13=5,14=1/1,2,3,16;
 1/18=20,19=15,26=6/3(2);
 2/9=110/2;
 99//99;
 2/9=110/2;
 3/5=44,7=101,11=9,14=-2,25=1,30=1,70=2205,71=1,72=2,74=-55,75=-5/1,2,3,8;
 4/5=5,16=3,69=1/1;
 5/5=2,38=5,53=2/2;
 8/6=1,10=1,107=1,108=5/1;
 9/8=1,15=2,41=5,42=1,48=1,49=4,70=2/14;
 10/5=4,28=1/2;
 7/12=6,13=5,14=1/1,2,3,16;
 1/18=20,19=15,26=6/3(-8);
 2/9=110/2;
 6/7=2,8=2,9=2,10=2/1;
 99//99;
 Leave Link    1 at Tue May  7 19:43:48 2024, MaxMem=  2684354560 cpu:              13.3 elap:               0.6
 (Enter /s/ls4/groups/g0130/bin/g16/l101.exe)
 Structure from the checkpoint file:  "sp1_s1_m062x.chk"
 -----
 TITLE
 -----
 Charge =  0 Multiplicity = 1
 Redundant internal coordinates found in file.  (old form).
 C,0,-5.5436613676,1.4028314753,-1.4850329292
 C,0,-4.6286318806,0.8379164437,-0.5941930571
 C,0,-3.6839206198,1.6742276613,-0.0225131973
 C,0,-3.6335644195,3.0333296482,-0.3370456099
 C,0,-4.5391459158,3.5813090179,-1.2175976192
 C,0,-5.5059758442,2.7537190678,-1.7979299647
 H,0,-4.6593662417,-0.2197319414,-0.3687507295
 H,0,-6.2210350836,3.1666261751,-2.4968437812
 H,0,-6.2899930235,0.7678128331,-1.9452629348
 H,0,-4.5014934787,4.6364504195,-1.4631759437
 N,0,-2.6831420894,1.3546497433,0.9004374424
 C,0,-1.6914849009,2.4102396104,0.8551861768
 C,0,-2.5285056442,3.6766333157,0.4705385404
 C,0,-2.2381353528,-0.0188286342,1.0185296059
 H,0,-1.4653924344,-0.0828881174,1.7830966727
 H,0,-1.8409502919,-0.4029711039,0.0716330737
 C,0,-3.1518456552,4.3209918219,1.7168963697
 H,0,-3.6671107662,3.5824213838,2.3328680952
 H,0,-3.8796463947,5.0667135313,1.3968048088
 H,0,-2.3951247285,4.8233881057,2.3214606311
 C,0,-1.7135977243,4.7166396068,-0.2866507099
 H,0,-1.3612540288,4.336664964,-1.2428017286
 H,0,-0.8509653182,5.0283770185,0.3063504735
 H,0,-2.3310930304,5.5975011303,-0.4681086284
 O,0,-0.8102544964,2.1632411752,-0.2766470223
 C,0,0.3759508932,1.5565133076,-0.1359916546
 C,0,-0.9215682157,2.5026221437,2.1364395664
 C,0,0.3285976778,2.0639536495,2.2528398004
 C,0,1.0183471039,1.4903070393,1.108937724
 H,0,-1.4561798937,2.8914381809,2.9910499592
 H,0,0.8495446215,2.1070566984,3.2013100672
 C,0,2.2667687038,0.8935992395,1.1897960271
 C,0,0.9769392233,1.0396372799,-1.2831348318
 C,0,2.2190860155,0.4466151423,-1.1954614858
 C,0,2.845905171,0.3797553837,0.0427425159
 H,0,2.7845312771,0.8324264627,2.1366846747
 H,0,0.4562955742,1.1121644248,-2.2278161328
 H,0,2.7036070813,0.0367433603,-2.0689220418
 N,0,4.1585188361,-0.2488985494,0.1373492085
 O,0,4.6913001428,-0.3034256939,1.2272819078
 O,0,4.6580030499,-0.6887689274,-0.8783246477
 H,0,-3.0714365848,-0.6478553608,1.3281574026
 Recover connectivity data from disk.
 ITRead=  0  0  0  0  0  0  0  0  0  0  0  0  0  0  0  0  0  0  0  0
 ITRead=  0  0  0  0  0  0  0  0  0  0  0  0  0  0  0  0  0  0  0  0
 ITRead=  0  0
 MicOpt= -1 -1 -1 -1 -1 -1 -1 -1 -1 -1 -1 -1 -1 -1 -1 -1 -1 -1 -1 -1
 MicOpt= -1 -1 -1 -1 -1 -1 -1 -1 -1 -1 -1 -1 -1 -1 -1 -1 -1 -1 -1 -1
 MicOpt= -1 -1
 NAtoms=     42 NQM=       42 NQMF=       0 NMMI=      0 NMMIF=      0
                NMic=       0 NMicF=      0.
                    Isotopes and Nuclear Properties:
 (Nuclear quadrupole moments (NQMom) in fm**2, nuclear magnetic moments (NMagM)
  in nuclear magnetons)

  Atom         1           2           3           4           5           6           7           8           9          10
 IAtWgt=          12          12          12          12          12          12           1           1           1           1
 AtmWgt=  12.0000000  12.0000000  12.0000000  12.0000000  12.0000000  12.0000000   1.0078250   1.0078250   1.0078250   1.0078250
 NucSpn=           0           0           0           0           0           0           1           1           1           1
 AtZEff=   3.6000000   3.6000000   3.6000000   3.6000000   3.6000000   3.6000000   1.0000000   1.0000000   1.0000000   1.0000000
 NQMom=    0.0000000   0.0000000   0.0000000   0.0000000   0.0000000   0.0000000   0.0000000   0.0000000   0.0000000   0.0000000
 NMagM=    0.0000000   0.0000000   0.0000000   0.0000000   0.0000000   0.0000000   2.7928460   2.7928460   2.7928460   2.7928460
 AtZNuc=   6.0000000   6.0000000   6.0000000   6.0000000   6.0000000   6.0000000   1.0000000   1.0000000   1.0000000   1.0000000

  Atom        11          12          13          14          15          16          17          18          19          20
 IAtWgt=          14          12          12          12           1           1          12           1           1           1
 AtmWgt=  14.0030740  12.0000000  12.0000000  12.0000000   1.0078250   1.0078250  12.0000000   1.0078250   1.0078250   1.0078250
 NucSpn=           2           0           0           0           1           1           0           1           1           1
 AtZEff=   4.5500000   3.6000000   3.6000000   3.6000000   1.0000000   1.0000000   3.6000000   1.0000000   1.0000000   1.0000000
 NQMom=    2.0440000   0.0000000   0.0000000   0.0000000   0.0000000   0.0000000   0.0000000   0.0000000   0.0000000   0.0000000
 NMagM=    0.4037610   0.0000000   0.0000000   0.0000000   2.7928460   2.7928460   0.0000000   2.7928460   2.7928460   2.7928460
 AtZNuc=   7.0000000   6.0000000   6.0000000   6.0000000   1.0000000   1.0000000   6.0000000   1.0000000   1.0000000   1.0000000

  Atom        21          22          23          24          25          26          27          28          29          30
 IAtWgt=          12           1           1           1          16          12          12          12          12           1
 AtmWgt=  12.0000000   1.0078250   1.0078250   1.0078250  15.9949146  12.0000000  12.0000000  12.0000000  12.0000000   1.0078250
 NucSpn=           0           1           1           1           0           0           0           0           0           1
 AtZEff=   3.6000000   1.0000000   1.0000000   1.0000000   5.6000000   3.6000000   3.6000000   3.6000000   3.6000000   1.0000000
 NQMom=    0.0000000   0.0000000   0.0000000   0.0000000   0.0000000   0.0000000   0.0000000   0.0000000   0.0000000   0.0000000
 NMagM=    0.0000000   2.7928460   2.7928460   2.7928460   0.0000000   0.0000000   0.0000000   0.0000000   0.0000000   2.7928460
 AtZNuc=   6.0000000   1.0000000   1.0000000   1.0000000   8.0000000   6.0000000   6.0000000   6.0000000   6.0000000   1.0000000

  Atom        31          32          33          34          35          36          37          38          39          40
 IAtWgt=           1          12          12          12          12           1           1           1          14          16
 AtmWgt=   1.0078250  12.0000000  12.0000000  12.0000000  12.0000000   1.0078250   1.0078250   1.0078250  14.0030740  15.9949146
 NucSpn=           1           0           0           0           0           1           1           1           2           0
 AtZEff=   1.0000000   3.6000000   3.6000000   3.6000000   3.6000000   1.0000000   1.0000000   1.0000000   4.5500000   5.6000000
 NQMom=    0.0000000   0.0000000   0.0000000   0.0000000   0.0000000   0.0000000   0.0000000   0.0000000   2.0440000   0.0000000
 NMagM=    2.7928460   0.0000000   0.0000000   0.0000000   0.0000000   2.7928460   2.7928460   2.7928460   0.4037610   0.0000000
 AtZNuc=   1.0000000   6.0000000   6.0000000   6.0000000   6.0000000   1.0000000   1.0000000   1.0000000   7.0000000   8.0000000

  Atom        41          42
 IAtWgt=          16           1
 AtmWgt=  15.9949146   1.0078250
 NucSpn=           0           1
 AtZEff=   5.6000000   1.0000000
 NQMom=    0.0000000   0.0000000
 NMagM=    0.0000000   2.7928460
 AtZNuc=   8.0000000   1.0000000
 Leave Link  101 at Tue May  7 19:43:49 2024, MaxMem=  2684354560 cpu:               7.4 elap:               0.3
 (Enter /s/ls4/groups/g0130/bin/g16/l103.exe)

 GradGradGradGradGradGradGradGradGradGradGradGradGradGradGradGradGradGrad
 Berny optimization.
 Initialization pass.
                           ----------------------------
                           !    Initial Parameters    !
                           ! (Angstroms and Degrees)  !
 --------------------------                            --------------------------
 ! Name  Definition              Value          Derivative Info.                !
 --------------------------------------------------------------------------------
 ! R1    R(1,2)                  1.3964         estimate D2E/DX2                !
 ! R2    R(1,6)                  1.3872         estimate D2E/DX2                !
 ! R3    R(1,9)                  1.0826         estimate D2E/DX2                !
 ! R4    R(2,3)                  1.3852         estimate D2E/DX2                !
 ! R5    R(2,7)                  1.0818         estimate D2E/DX2                !
 ! R6    R(3,4)                  1.3959         estimate D2E/DX2                !
 ! R7    R(3,11)                 1.3984         estimate D2E/DX2                !
 ! R8    R(4,5)                  1.3769         estimate D2E/DX2                !
 ! R9    R(4,13)                 1.5123         estimate D2E/DX2                !
 ! R10   R(5,6)                  1.3987         estimate D2E/DX2                !
 ! R11   R(5,10)                 1.084          estimate D2E/DX2                !
 ! R12   R(6,8)                  1.0818         estimate D2E/DX2                !
 ! R13   R(11,12)                1.449          estimate D2E/DX2                !
 ! R14   R(11,14)                1.4486         estimate D2E/DX2                !
 ! R15   R(12,13)                1.566          estimate D2E/DX2                !
 ! R16   R(12,25)                1.4555         estimate D2E/DX2                !
 ! R17   R(12,27)                1.4976         estimate D2E/DX2                !
 ! R18   R(13,17)                1.5353         estimate D2E/DX2                !
 ! R19   R(13,21)                1.5228         estimate D2E/DX2                !
 ! R20   R(14,15)                1.0889         estimate D2E/DX2                !
 ! R21   R(14,16)                1.0963         estimate D2E/DX2                !
 ! R22   R(14,42)                1.089          estimate D2E/DX2                !
 ! R23   R(17,18)                1.0911         estimate D2E/DX2                !
 ! R24   R(17,19)                1.0901         estimate D2E/DX2                !
 ! R25   R(17,20)                1.0911         estimate D2E/DX2                !
 ! R26   R(21,22)                1.0875         estimate D2E/DX2                !
 ! R27   R(21,23)                1.0922         estimate D2E/DX2                !
 ! R28   R(21,24)                1.0909         estimate D2E/DX2                !
 ! R29   R(25,26)                1.3398         estimate D2E/DX2                !
 ! R30   R(26,29)                1.4025         estimate D2E/DX2                !
 ! R31   R(26,33)                1.3944         estimate D2E/DX2                !
 ! R32   R(27,28)                1.33           estimate D2E/DX2                !
 ! R33   R(27,30)                1.0804         estimate D2E/DX2                !
 ! R34   R(28,29)                1.4537         estimate D2E/DX2                !
 ! R35   R(28,31)                1.083          estimate D2E/DX2                !
 ! R36   R(29,32)                1.3861         estimate D2E/DX2                !
 ! R37   R(32,35)                1.3839         estimate D2E/DX2                !
 ! R38   R(32,36)                1.0809         estimate D2E/DX2                !
 ! R39   R(33,34)                1.3792         estimate D2E/DX2                !
 ! R40   R(33,37)                1.0811         estimate D2E/DX2                !
 ! R41   R(34,35)                1.3894         estimate D2E/DX2                !
 ! R42   R(34,38)                1.0797         estimate D2E/DX2                !
 ! R43   R(35,39)                1.4585         estimate D2E/DX2                !
 ! R44   R(39,40)                1.2144         estimate D2E/DX2                !
 ! R45   R(39,41)                1.2143         estimate D2E/DX2                !
 ! A1    A(2,1,6)              121.3363         estimate D2E/DX2                !
 ! A2    A(2,1,9)              119.0537         estimate D2E/DX2                !
 ! A3    A(6,1,9)              119.6075         estimate D2E/DX2                !
 ! A4    A(1,2,3)              117.7712         estimate D2E/DX2                !
 ! A5    A(1,2,7)              120.6518         estimate D2E/DX2                !
 ! A6    A(3,2,7)              121.5758         estimate D2E/DX2                !
 ! A7    A(2,3,4)              121.2946         estimate D2E/DX2                !
 ! A8    A(2,3,11)             128.4993         estimate D2E/DX2                !
 ! A9    A(4,3,11)             110.2061         estimate D2E/DX2                !
 ! A10   A(3,4,5)              120.5219         estimate D2E/DX2                !
 ! A11   A(3,4,13)             108.6741         estimate D2E/DX2                !
 ! A12   A(5,4,13)             130.7534         estimate D2E/DX2                !
 ! A13   A(4,5,6)              118.979          estimate D2E/DX2                !
 ! A14   A(4,5,10)             120.6265         estimate D2E/DX2                !
 ! A15   A(6,5,10)             120.3935         estimate D2E/DX2                !
 ! A16   A(1,6,5)              120.092          estimate D2E/DX2                !
 ! A17   A(1,6,8)              119.9655         estimate D2E/DX2                !
 ! A18   A(5,6,8)              119.9412         estimate D2E/DX2                !
 ! A19   A(3,11,12)            107.6184         estimate D2E/DX2                !
 ! A20   A(3,11,14)            119.3627         estimate D2E/DX2                !
 ! A21   A(12,11,14)           118.8826         estimate D2E/DX2                !
 ! A22   A(11,12,13)           103.3555         estimate D2E/DX2                !
 ! A23   A(11,12,25)           108.3604         estimate D2E/DX2                !
 ! A24   A(11,12,27)           111.7181         estimate D2E/DX2                !
 ! A25   A(13,12,25)           105.6543         estimate D2E/DX2                !
 ! A26   A(13,12,27)           115.7874         estimate D2E/DX2                !
 ! A27   A(25,12,27)           111.3752         estimate D2E/DX2                !
 ! A28   A(4,13,12)            100.2375         estimate D2E/DX2                !
 ! A29   A(4,13,17)            108.3824         estimate D2E/DX2                !
 ! A30   A(4,13,21)            114.5823         estimate D2E/DX2                !
 ! A31   A(12,13,17)           110.9168         estimate D2E/DX2                !
 ! A32   A(12,13,21)           112.8545         estimate D2E/DX2                !
 ! A33   A(17,13,21)           109.5289         estimate D2E/DX2                !
 ! A34   A(11,14,15)           109.3302         estimate D2E/DX2                !
 ! A35   A(11,14,16)           111.9073         estimate D2E/DX2                !
 ! A36   A(11,14,42)           109.6197         estimate D2E/DX2                !
 ! A37   A(15,14,16)           109.191          estimate D2E/DX2                !
 ! A38   A(15,14,42)           108.0228         estimate D2E/DX2                !
 ! A39   A(16,14,42)           108.6869         estimate D2E/DX2                !
 ! A40   A(13,17,18)           111.466          estimate D2E/DX2                !
 ! A41   A(13,17,19)           108.6514         estimate D2E/DX2                !
 ! A42   A(13,17,20)           111.1906         estimate D2E/DX2                !
 ! A43   A(18,17,19)           108.2739         estimate D2E/DX2                !
 ! A44   A(18,17,20)           109.0506         estimate D2E/DX2                !
 ! A45   A(19,17,20)           108.1048         estimate D2E/DX2                !
 ! A46   A(13,21,22)           111.8335         estimate D2E/DX2                !
 ! A47   A(13,21,23)           110.3407         estimate D2E/DX2                !
 ! A48   A(13,21,24)           109.3442         estimate D2E/DX2                !
 ! A49   A(22,21,23)           108.734          estimate D2E/DX2                !
 ! A50   A(22,21,24)           108.6177         estimate D2E/DX2                !
 ! A51   A(23,21,24)           107.872          estimate D2E/DX2                !
 ! A52   A(12,25,26)           122.0896         estimate D2E/DX2                !
 ! A53   A(25,26,29)           121.3401         estimate D2E/DX2                !
 ! A54   A(25,26,33)           117.5876         estimate D2E/DX2                !
 ! A55   A(29,26,33)           121.0215         estimate D2E/DX2                !
 ! A56   A(12,27,28)           122.5312         estimate D2E/DX2                !
 ! A57   A(12,27,30)           116.3929         estimate D2E/DX2                !
 ! A58   A(28,27,30)           120.9692         estimate D2E/DX2                !
 ! A59   A(27,28,29)           120.4823         estimate D2E/DX2                !
 ! A60   A(27,28,31)           121.043          estimate D2E/DX2                !
 ! A61   A(29,28,31)           118.4644         estimate D2E/DX2                !
 ! A62   A(26,29,28)           117.5504         estimate D2E/DX2                !
 ! A63   A(26,29,32)           118.9909         estimate D2E/DX2                !
 ! A64   A(28,29,32)           123.4582         estimate D2E/DX2                !
 ! A65   A(29,32,35)           119.237          estimate D2E/DX2                !
 ! A66   A(29,32,36)           120.4574         estimate D2E/DX2                !
 ! A67   A(35,32,36)           120.3054         estimate D2E/DX2                !
 ! A68   A(26,33,34)           119.6866         estimate D2E/DX2                !
 ! A69   A(26,33,37)           119.1075         estimate D2E/DX2                !
 ! A70   A(34,33,37)           121.2059         estimate D2E/DX2                !
 ! A71   A(33,34,35)           118.9228         estimate D2E/DX2                !
 ! A72   A(33,34,38)           121.0618         estimate D2E/DX2                !
 ! A73   A(35,34,38)           120.0153         estimate D2E/DX2                !
 ! A74   A(32,35,34)           122.1397         estimate D2E/DX2                !
 ! A75   A(32,35,39)           118.8759         estimate D2E/DX2                !
 ! A76   A(34,35,39)           118.9842         estimate D2E/DX2                !
 ! A77   A(35,39,40)           118.1913         estimate D2E/DX2                !
 ! A78   A(35,39,41)           118.1693         estimate D2E/DX2                !
 ! A79   A(40,39,41)           123.6394         estimate D2E/DX2                !
 ! D1    D(6,1,2,3)              0.4646         estimate D2E/DX2                !
 ! D2    D(6,1,2,7)           -179.133          estimate D2E/DX2                !
 ! D3    D(9,1,2,3)            179.8942         estimate D2E/DX2                !
 ! D4    D(9,1,2,7)              0.2966         estimate D2E/DX2                !
 ! D5    D(2,1,6,5)             -0.0522         estimate D2E/DX2                !
 ! D6    D(2,1,6,8)            179.5344         estimate D2E/DX2                !
 ! D7    D(9,1,6,5)           -179.4787         estimate D2E/DX2                !
 ! D8    D(9,1,6,8)              0.1079         estimate D2E/DX2                !
 ! D9    D(1,2,3,4)             -0.8275         estimate D2E/DX2                !
 ! D10   D(1,2,3,11)           179.1353         estimate D2E/DX2                !
 ! D11   D(7,2,3,4)            178.7662         estimate D2E/DX2                !
 ! D12   D(7,2,3,11)            -1.271          estimate D2E/DX2                !
 ! D13   D(2,3,4,5)              0.7869         estimate D2E/DX2                !
 ! D14   D(2,3,4,13)           178.4681         estimate D2E/DX2                !
 ! D15   D(11,3,4,5)          -179.1821         estimate D2E/DX2                !
 ! D16   D(11,3,4,13)           -1.5009         estimate D2E/DX2                !
 ! D17   D(2,3,11,12)          160.9983         estimate D2E/DX2                !
 ! D18   D(2,3,11,14)           21.52           estimate D2E/DX2                !
 ! D19   D(4,3,11,12)          -19.0356         estimate D2E/DX2                !
 ! D20   D(4,3,11,14)         -158.5139         estimate D2E/DX2                !
 ! D21   D(3,4,5,6)             -0.3471         estimate D2E/DX2                !
 ! D22   D(3,4,5,10)          -179.9899         estimate D2E/DX2                !
 ! D23   D(13,4,5,6)          -177.4468         estimate D2E/DX2                !
 ! D24   D(13,4,5,10)            2.9105         estimate D2E/DX2                !
 ! D25   D(3,4,13,12)           19.2178         estimate D2E/DX2                !
 ! D26   D(3,4,13,17)          -97.0338         estimate D2E/DX2                !
 ! D27   D(3,4,13,21)          140.3244         estimate D2E/DX2                !
 ! D28   D(5,4,13,12)         -163.4193         estimate D2E/DX2                !
 ! D29   D(5,4,13,17)           80.3292         estimate D2E/DX2                !
 ! D30   D(5,4,13,21)          -42.3127         estimate D2E/DX2                !
 ! D31   D(4,5,6,1)             -0.0115         estimate D2E/DX2                !
 ! D32   D(4,5,6,8)           -179.5982         estimate D2E/DX2                !
 ! D33   D(10,5,6,1)           179.6321         estimate D2E/DX2                !
 ! D34   D(10,5,6,8)             0.0454         estimate D2E/DX2                !
 ! D35   D(3,11,12,13)          30.4565         estimate D2E/DX2                !
 ! D36   D(3,11,12,25)         -81.321          estimate D2E/DX2                !
 ! D37   D(3,11,12,27)         155.616          estimate D2E/DX2                !
 ! D38   D(14,11,12,13)        170.1624         estimate D2E/DX2                !
 ! D39   D(14,11,12,25)         58.3849         estimate D2E/DX2                !
 ! D40   D(14,11,12,27)        -64.6781         estimate D2E/DX2                !
 ! D41   D(3,11,14,15)        -179.6673         estimate D2E/DX2                !
 ! D42   D(3,11,14,16)          59.2326         estimate D2E/DX2                !
 ! D43   D(3,11,14,42)         -61.4294         estimate D2E/DX2                !
 ! D44   D(12,11,14,15)         45.3428         estimate D2E/DX2                !
 ! D45   D(12,11,14,16)        -75.7573         estimate D2E/DX2                !
 ! D46   D(12,11,14,42)        163.5807         estimate D2E/DX2                !
 ! D47   D(11,12,13,4)         -29.3821         estimate D2E/DX2                !
 ! D48   D(11,12,13,17)         84.9543         estimate D2E/DX2                !
 ! D49   D(11,12,13,21)       -151.7168         estimate D2E/DX2                !
 ! D50   D(25,12,13,4)          84.3681         estimate D2E/DX2                !
 ! D51   D(25,12,13,17)       -161.2954         estimate D2E/DX2                !
 ! D52   D(25,12,13,21)        -37.9666         estimate D2E/DX2                !
 ! D53   D(27,12,13,4)        -151.8682         estimate D2E/DX2                !
 ! D54   D(27,12,13,17)        -37.5318         estimate D2E/DX2                !
 ! D55   D(27,12,13,21)         85.7971         estimate D2E/DX2                !
 ! D56   D(11,12,25,26)        -97.532          estimate D2E/DX2                !
 ! D57   D(13,12,25,26)        152.2397         estimate D2E/DX2                !
 ! D58   D(27,12,25,26)         25.7381         estimate D2E/DX2                !
 ! D59   D(11,12,27,28)        104.8911         estimate D2E/DX2                !
 ! D60   D(11,12,27,30)        -71.3832         estimate D2E/DX2                !
 ! D61   D(13,12,27,28)       -137.1663         estimate D2E/DX2                !
 ! D62   D(13,12,27,30)         46.5593         estimate D2E/DX2                !
 ! D63   D(25,12,27,28)        -16.4415         estimate D2E/DX2                !
 ! D64   D(25,12,27,30)        167.2841         estimate D2E/DX2                !
 ! D65   D(4,13,17,18)          59.5962         estimate D2E/DX2                !
 ! D66   D(4,13,17,19)         -59.635          estimate D2E/DX2                !
 ! D67   D(4,13,17,20)        -178.4919         estimate D2E/DX2                !
 ! D68   D(12,13,17,18)        -49.5214         estimate D2E/DX2                !
 ! D69   D(12,13,17,19)       -168.7526         estimate D2E/DX2                !
 ! D70   D(12,13,17,20)         72.3905         estimate D2E/DX2                !
 ! D71   D(21,13,17,18)       -174.7426         estimate D2E/DX2                !
 ! D72   D(21,13,17,19)         66.0263         estimate D2E/DX2                !
 ! D73   D(21,13,17,20)        -52.8307         estimate D2E/DX2                !
 ! D74   D(4,13,21,22)         -50.5751         estimate D2E/DX2                !
 ! D75   D(4,13,21,23)        -171.742          estimate D2E/DX2                !
 ! D76   D(4,13,21,24)          69.7664         estimate D2E/DX2                !
 ! D77   D(12,13,21,22)         63.3101         estimate D2E/DX2                !
 ! D78   D(12,13,21,23)        -57.8569         estimate D2E/DX2                !
 ! D79   D(12,13,21,24)       -176.3485         estimate D2E/DX2                !
 ! D80   D(17,13,21,22)       -172.5947         estimate D2E/DX2                !
 ! D81   D(17,13,21,23)         66.2383         estimate D2E/DX2                !
 ! D82   D(17,13,21,24)        -52.2533         estimate D2E/DX2                !
 ! D83   D(12,25,26,29)        -19.7036         estimate D2E/DX2                !
 ! D84   D(12,25,26,33)        162.862          estimate D2E/DX2                !
 ! D85   D(25,26,29,28)          2.0858         estimate D2E/DX2                !
 ! D86   D(25,26,29,32)       -177.6754         estimate D2E/DX2                !
 ! D87   D(33,26,29,28)        179.4323         estimate D2E/DX2                !
 ! D88   D(33,26,29,32)         -0.3289         estimate D2E/DX2                !
 ! D89   D(25,26,33,34)        177.8053         estimate D2E/DX2                !
 ! D90   D(25,26,33,37)         -2.2229         estimate D2E/DX2                !
 ! D91   D(29,26,33,34)          0.3623         estimate D2E/DX2                !
 ! D92   D(29,26,33,37)       -179.6659         estimate D2E/DX2                !
 ! D93   D(12,27,28,29)          1.2554         estimate D2E/DX2                !
 ! D94   D(12,27,28,31)       -177.5614         estimate D2E/DX2                !
 ! D95   D(30,27,28,29)        177.363          estimate D2E/DX2                !
 ! D96   D(30,27,28,31)         -1.4538         estimate D2E/DX2                !
 ! D97   D(27,28,29,26)          6.9549         estimate D2E/DX2                !
 ! D98   D(27,28,29,32)       -173.2954         estimate D2E/DX2                !
 ! D99   D(31,28,29,26)       -174.1982         estimate D2E/DX2                !
 ! D100  D(31,28,29,32)          5.5515         estimate D2E/DX2                !
 ! D101  D(26,29,32,35)          0.0021         estimate D2E/DX2                !
 ! D102  D(26,29,32,36)        179.8099         estimate D2E/DX2                !
 ! D103  D(28,29,32,35)       -179.7441         estimate D2E/DX2                !
 ! D104  D(28,29,32,36)          0.0637         estimate D2E/DX2                !
 ! D105  D(29,32,35,34)          0.297          estimate D2E/DX2                !
 ! D106  D(29,32,35,39)       -179.8738         estimate D2E/DX2                !
 ! D107  D(36,32,35,34)       -179.5111         estimate D2E/DX2                !
 ! D108  D(36,32,35,39)          0.3181         estimate D2E/DX2                !
 ! D109  D(26,33,34,35)         -0.0663         estimate D2E/DX2                !
 ! D110  D(26,33,34,38)        179.8305         estimate D2E/DX2                !
 ! D111  D(37,33,34,35)        179.9625         estimate D2E/DX2                !
 ! D112  D(37,33,34,38)         -0.1408         estimate D2E/DX2                !
 ! D113  D(33,34,35,32)         -0.2652         estimate D2E/DX2                !
 ! D114  D(33,34,35,39)        179.9058         estimate D2E/DX2                !
 ! D115  D(38,34,35,32)        179.837          estimate D2E/DX2                !
 ! D116  D(38,34,35,39)          0.008          estimate D2E/DX2                !
 ! D117  D(32,35,39,40)          0.4033         estimate D2E/DX2                !
 ! D118  D(32,35,39,41)       -179.596          estimate D2E/DX2                !
 ! D119  D(34,35,39,40)       -179.7621         estimate D2E/DX2                !
 ! D120  D(34,35,39,41)          0.2386         estimate D2E/DX2                !
 --------------------------------------------------------------------------------
 Trust Radius=3.00D-01 FncErr=5.00D-06 GrdErr=5.00D-06 EigMax=2.50D+02 EigMin=1.00D-04
 Number of steps in this run=    252 maximum allowed number of steps=    252.
 GradGradGradGradGradGradGradGradGradGradGradGradGradGradGradGradGradGrad

 Leave Link  103 at Tue May  7 19:43:49 2024, MaxMem=  2684354560 cpu:               0.5 elap:               0.0
 (Enter /s/ls4/groups/g0130/bin/g16/l202.exe)
                          Input orientation:                          
 ---------------------------------------------------------------------
 Center     Atomic      Atomic             Coordinates (Angstroms)
 Number     Number       Type             X           Y           Z
 ---------------------------------------------------------------------
      1          6           0       -5.543661    1.402831   -1.485033
      2          6           0       -4.628632    0.837916   -0.594193
      3          6           0       -3.683921    1.674228   -0.022513
      4          6           0       -3.633564    3.033330   -0.337046
      5          6           0       -4.539146    3.581309   -1.217598
      6          6           0       -5.505976    2.753719   -1.797930
      7          1           0       -4.659366   -0.219732   -0.368751
      8          1           0       -6.221035    3.166626   -2.496844
      9          1           0       -6.289993    0.767813   -1.945263
     10          1           0       -4.501493    4.636450   -1.463176
     11          7           0       -2.683142    1.354650    0.900437
     12          6           0       -1.691485    2.410240    0.855186
     13          6           0       -2.528506    3.676633    0.470539
     14          6           0       -2.238135   -0.018829    1.018530
     15          1           0       -1.465392   -0.082888    1.783097
     16          1           0       -1.840950   -0.402971    0.071633
     17          6           0       -3.151846    4.320992    1.716896
     18          1           0       -3.667111    3.582421    2.332868
     19          1           0       -3.879646    5.066714    1.396805
     20          1           0       -2.395125    4.823388    2.321461
     21          6           0       -1.713598    4.716640   -0.286651
     22          1           0       -1.361254    4.336665   -1.242802
     23          1           0       -0.850965    5.028377    0.306350
     24          1           0       -2.331093    5.597501   -0.468109
     25          8           0       -0.810254    2.163241   -0.276647
     26          6           0        0.375951    1.556513   -0.135992
     27          6           0       -0.921568    2.502622    2.136440
     28          6           0        0.328598    2.063954    2.252840
     29          6           0        1.018347    1.490307    1.108938
     30          1           0       -1.456180    2.891438    2.991050
     31          1           0        0.849545    2.107057    3.201310
     32          6           0        2.266769    0.893599    1.189796
     33          6           0        0.976939    1.039637   -1.283135
     34          6           0        2.219086    0.446615   -1.195461
     35          6           0        2.845905    0.379755    0.042743
     36          1           0        2.784531    0.832426    2.136685
     37          1           0        0.456296    1.112164   -2.227816
     38          1           0        2.703607    0.036743   -2.068922
     39          7           0        4.158519   -0.248899    0.137349
     40          8           0        4.691300   -0.303426    1.227282
     41          8           0        4.658003   -0.688769   -0.878325
     42          1           0       -3.071437   -0.647855    1.328157
 ---------------------------------------------------------------------
                    Distance matrix (angstroms):
                    1          2          3          4          5
     1  C    0.000000
     2  C    1.396425   0.000000
     3  C    2.381440   1.385176   0.000000
     4  C    2.761317   2.424072   1.395931   0.000000
     5  C    2.413781   2.814755   2.407612   1.376856   0.000000
     6  C    1.387163   2.426729   2.763565   2.391295   1.398732
     7  H    2.158883   1.081845   2.158346   3.411112   3.896525
     8  H    2.143261   3.402751   3.845324   3.373055   2.153412
     9  H    1.082622   2.142528   3.363059   3.843897   3.392746
    10  H    3.397482   3.898738   3.393921   2.142771   1.083997
    11  N    3.724965   2.507163   1.398401   2.291862   3.590102
    12  C    4.618524   3.633144   2.298232   2.362484   3.711739
    13  C    4.252717   3.688156   2.363834   1.512345   2.627083
    14  C    4.383543   3.008215   2.457744   3.619458   4.822438
    15  H    5.433260   4.062693   3.357015   4.348193   5.646102
    16  H    4.403885   3.123187   2.778517   3.897261   4.981653
    17  C    4.948615   4.433266   3.211543   2.471600   3.329112
    18  H    4.780002   4.126078   3.031387   2.725998   3.655989
    19  H    4.949542   4.733685   3.682626   2.683551   3.078387
    20  H    6.008568   5.419739   4.131878   3.435942   4.320245
    21  C    5.204501   4.861738   3.634310   2.553888   3.184236
    22  H    5.114547   4.830910   3.737975   2.771727   3.266526
    23  H    6.194758   5.713292   4.402738   3.483824   4.244891
    24  H    5.380519   5.286608   4.173820   2.878990   3.082574
    25  O    4.944043   4.054297   2.926034   2.954959   4.098894
    26  C    6.073330   5.076631   4.063163   4.277572   5.424744
    27  C    5.973973   4.895909   3.602486   3.708733   5.049752
    28  C    6.992296   5.846613   4.629192   4.831762   6.167757
    29  C    7.056649   5.934192   4.839972   5.109997   6.377365
    30  H    6.241696   5.209162   3.940304   3.979618   5.262444
    31  H    7.958067   6.784319   5.579667   5.785863   7.123072
    32  C    8.271448   7.122659   6.122890   6.459383   7.703233
    33  C    6.533828   5.651350   4.869855   5.111422   6.073844
    34  C    7.826778   6.885193   6.142339   6.456120   7.449865
    35  C    8.588691   7.515604   6.657217   7.012077   8.147232
    36  H    9.099505   7.900172   6.871072   7.221860   8.511393
    37  H    6.052743   5.347936   4.724475   4.898249   5.663184
    38  H    8.380010   7.521864   6.904321   7.220711   8.108401
    39  N    9.974600   8.884275   8.076375   8.468449   9.599778
    40  O   10.724850   9.564600   8.695828   9.104088  10.308721
    41  O   10.431531   9.415577   8.712282   9.104784  10.145749
    42  H    4.269807   2.885794   2.755271   4.079217   5.149842
                    6          7          8          9         10
     6  C    0.000000
     7  H    3.405982   0.000000
     8  H    1.081796   4.293601   0.000000
     9  H    2.140143   2.473778   2.462377   0.000000
    10  H    2.160028   4.980482   2.487102   4.289230   0.000000
    11  N    4.148129   2.827539   5.228907   4.631605   4.434330
    12  C    4.659114   4.150071   5.685512   5.629064   4.269305
    13  C    3.855262   4.519584   4.764477   5.333490   2.924582
    14  C    5.128182   2.797725   6.194228   5.081380   5.740494
    15  H    6.098886   3.853653   7.175888   6.156389   6.482928
    16  H    5.185785   2.858493   6.206790   5.023205   5.901686
    17  C    4.511350   5.219264   5.339297   5.990364   3.468995
    18  H    4.596919   4.768615   5.479191   5.753602   4.027049
    19  H    4.266289   5.627758   4.924727   5.954808   2.958261
    20  H    5.561502   6.147934   6.371696   7.058514   4.335344
    21  C    4.529807   5.749092   5.253997   6.267984   3.027046
    22  H    4.471309   5.692298   5.153551   6.125571   3.162205
    23  H    5.592065   6.519381   6.337323   7.266718   4.075682
    24  H    4.464908   6.266652   5.015632   6.417224   2.573794
    25  O    4.971194   4.527991   5.934021   5.895679   4.598898
    26  C    6.228355   5.344496   7.189319   6.952001   5.919197
    27  C    6.046413   5.259118   7.070542   6.963465   5.506934
    28  C    7.136299   6.080110   8.165358   7.944167   6.614854
    29  C    7.253474   6.110992   8.259562   7.953740   6.854387
    30  H    6.273288   5.588206   7.273002   7.227912   5.670902
    31  H    8.111918   6.964724   9.142469   8.902460   7.535839
    32  C    8.532415   7.186092   9.528944   9.113868   8.176587
    33  C    6.725420   5.847226   7.603158   7.302096   6.556120
    34  C    8.084694   6.959926   8.962572   8.548087   7.924177
    35  C    8.875680   7.540412   9.819651   9.357745   8.623892
    36  H    9.375770   7.924384  10.393185   9.950551   8.973057
    37  H    6.199047   5.603576   6.991419   6.760978   6.130656
    38  H    8.651742   7.561067   9.467234   9.024112   8.569580
    39  N   10.303566   8.832445  11.240103  10.702447  10.070955
    40  O   11.067180   9.486268  12.041156  11.480479  10.777216
    41  O   10.770463   9.343074  11.654919  11.095882  10.611145
    42  H    5.222079   2.363114   6.253069   4.804009   6.144957
                   11         12         13         14         15
    11  N    0.000000
    12  C    1.449035   0.000000
    13  C    2.366502   1.565985   0.000000
    14  C    1.448592   2.495171   3.747139   0.000000
    15  H    2.080509   2.669798   4.121531   1.088944   0.000000
    16  H    2.117884   2.924115   4.156324   1.096328   1.781181
    17  C    3.112149   2.554637   1.535304   4.489613   4.716213
    18  H    2.825424   2.731419   2.184850   4.091266   4.310952
    19  H    3.931593   3.484000   2.148458   5.357274   5.700547
    20  H    3.759575   2.910044   2.181456   5.016905   5.022528
    21  C    3.694884   2.573667   1.522834   4.939969   5.232679
    22  H    3.902983   2.867354   2.175696   4.985265   5.357178
    23  H    4.148022   2.803986   2.160627   5.282587   5.355682
    24  H    4.471984   3.509821   2.147036   5.810499   6.171239
    25  O    2.355219   1.455549   2.408533   2.911658   3.117186
    26  C    3.236199   2.446543   3.646732   3.263138   3.124273
    27  C    2.438992   1.497637   2.595337   3.056270   2.665607
    28  C    3.376786   2.480742   3.733681   3.528402   2.836898
    29  C    3.709838   2.872952   4.215180   3.590312   3.016355
    30  H    2.870160   2.202007   2.849455   3.601658   3.210273
    31  H    4.282523   3.471750   4.618648   4.337936   3.487997
    32  C    4.979750   4.252050   5.590820   4.599567   3.903147
    33  C    4.273572   3.683946   4.724115   4.093252   4.077600
    34  C    5.408249   4.832550   5.978980   4.998521   4.767343
    35  C    5.679474   5.036947   6.319549   5.192157   4.672276
    36  H    5.629962   4.915939   6.252513   5.215562   4.361729
    37  H    4.438563   3.975282   4.771442   4.367821   4.605264
    38  H    6.290552   5.787981   6.860952   5.827200   5.677404
    39  N    7.068380   6.465976   7.761257   6.461161   5.862118
    40  O    7.565609   6.945673   8.278836   6.938418   6.185663
    41  O    7.825086   7.274951   8.515989   7.183565   6.704195
    42  H    2.084165   3.388202   4.442014   1.089006   1.762253
                   16         17         18         19         20
    16  H    0.000000
    17  C    5.171186   0.000000
    18  H    4.932687   1.091057   0.000000
    19  H    5.985801   1.090070   1.767628   0.000000
    20  H    5.716963   1.091113   1.777098   1.765786   0.000000
    21  C    5.133712   2.497858   3.458980   2.765563   2.697799
    22  H    4.941862   3.459231   4.321027   3.720591   3.742961
    23  H    5.525822   2.789997   3.758755   3.219234   2.546982
    24  H    6.044603   2.660330   3.700130   2.481462   2.895695
    25  O    2.787307   3.756748   4.121319   4.544421   4.042074
    26  C    2.966031   4.849833   5.152273   5.725476   4.938664
    27  C    3.681190   2.908027   2.956781   3.983949   2.755278
    28  C    3.943389   4.182696   4.275258   5.240103   3.877867
    29  C    3.582748   5.076701   5.275269   6.071564   4.922543
    30  H    4.418617   2.557806   2.408086   3.625828   2.249977
    31  H    4.830516   4.807922   4.830224   5.863536   4.322091
    32  C    4.450251   6.433214   6.614174   7.432103   6.201383
    33  C    3.443402   6.067482   6.411585   6.854622   6.219381
    34  C    4.337190   7.234606   7.545177   8.078347   7.267450
    35  C    4.751853   7.369474   7.610593   8.308677   7.239256
    36  H    5.213993   6.898325   7.016028   7.930187   6.541464
    37  H    3.586146   6.235063   6.626046   6.897589   6.526844
    38  H    5.042651   8.183736   8.516668   8.980595   8.257390
    39  N    6.001807   8.764719   8.985532   9.718748   8.570220
    40  O    6.634435   9.118108   9.283596  10.115743   8.814696
    41  O    6.574230   9.634657   9.892540  10.544821   9.506267
    42  H    1.775646   4.984679   4.388566   5.771847   5.601656
                   21         22         23         24         25
    21  C    0.000000
    22  H    1.087544   0.000000
    23  H    1.092230   1.771647   0.000000
    24  H    1.090937   1.769306   1.764785   0.000000
    25  O    2.708500   2.441480   2.924132   3.760818   0.000000
    26  C    3.791479   3.460080   3.708750   4.875241   1.339771
    27  C    3.376470   3.869924   3.119880   4.283539   2.439376
    28  C    4.201942   4.498925   3.737378   5.192636   2.775814
    29  C    4.452012   4.392600   4.081227   5.529455   2.390914
    30  H    3.760445   4.474728   3.484308   4.478172   3.409594
    31  H    5.054255   5.441407   4.450465   5.980325   3.854124
    32  C    5.713042   5.561905   5.253297   6.783485   3.637378
    33  C    4.663938   4.042173   4.666663   5.690472   2.338710
    34  C    5.875802   5.287113   5.716047   6.911208   3.601101
    35  C    6.301280   5.916920   5.945252   7.367981   4.080482
    36  H    6.418164   6.394384   5.845764   7.460596   4.529649
    37  H    4.633444   3.830293   4.844342   5.566359   2.552640
    38  H    6.677546   5.974521   6.572162   7.670257   4.481235
    39  N    7.701824   7.307537   7.278264   8.755686   5.538819
    40  O    8.277425   8.016556   7.745511   9.327877   6.213964
    41  O    8.376504   7.849795   8.027325   9.409194   6.196597
    42  H    5.764472   5.863446   6.180145   6.540578   3.948494
                   26         27         28         29         30
    26  C    0.000000
    27  C    2.782557   0.000000
    28  C    2.442592   1.329998   0.000000
    29  C    1.402464   2.417398   1.453732   0.000000
    30  H    3.862268   1.080438   2.101218   3.410102   0.000000
    31  H    3.415402   2.104106   1.082977   2.187898   2.444551
    32  C    2.402574   3.694669   2.501259   1.386057   4.593062
    33  C    1.394376   4.175900   3.738006   2.434508   5.255273
    34  C    2.398228   5.019207   4.252119   2.800236   6.083717
    35  C    2.741784   4.804580   3.749385   2.389574   5.788696
    36  H    3.389782   4.065062   2.749866   2.146736   4.790939
    37  H    2.140007   4.783159   4.582411   3.404823   5.836090
    38  H    3.385839   6.075156   5.331780   3.879657   7.145378
    39  N    4.200244   6.113470   4.949028   3.718803   7.037767
    40  O    4.892865   6.340723   5.068474   4.089262   7.149094
    41  O    4.891658   7.099676   6.010443   4.684515   8.072991
    42  H    4.345970   3.898816   4.446254   4.620187   4.230941
                   31         32         33         34         35
    31  H    0.000000
    32  C    2.743573   0.000000
    33  C    4.611492   2.792915   0.000000
    34  C    4.895336   2.427246   1.379235   0.000000
    35  C    4.116500   1.383895   2.384623   1.389432   0.000000
    36  H    2.549957   1.080934   3.873692   3.401731   2.143192
    37  H    5.533522   3.873714   1.081089   2.148521   3.376699
    38  H    5.958111   3.397686   2.145842   1.079671   2.144069
    39  N    5.087995   2.447788   3.714909   2.453879   1.458462
    40  O    4.946342   2.704187   4.680009   3.541764   2.296814
    41  O    6.242148   3.535394   4.086746   2.708872   2.296477
    42  H    5.145127   5.558027   5.104491   5.962898   6.141922
                   36         37         38         39         40
    36  H    0.000000
    37  H    4.954574   0.000000
    38  H    4.280980   2.496435   0.000000
    39  N    2.656021   4.599234   2.658193   0.000000
    40  O    2.398529   5.645960   3.864143   1.214406   0.000000
    41  O    3.861892   4.766428   2.400740   1.214316   2.140836
    42  H    6.094039   5.309191   6.734980   7.338218   7.771029
                   41         42
    41  O    0.000000
    42  H    8.038313   0.000000
 Stoichiometry    C19H18N2O3
 Framework group  C1[X(C19H18N2O3)]
 Deg. of freedom   120
 Full point group                 C1      NOp   1
 RotChk:  IX=2 Diff= 2.46D-15
 Largest Abelian subgroup         C1      NOp   1
 Largest concise Abelian subgroup C1      NOp   1
                         Standard orientation:                         
 ---------------------------------------------------------------------
 Center     Atomic      Atomic             Coordinates (Angstroms)
 Number     Number       Type             X           Y           Z
 ---------------------------------------------------------------------
      1          6           0        4.493112   -2.225294   -0.356037
      2          6           0        3.380877   -1.823966   -1.098919
      3          6           0        2.715558   -0.677549   -0.696686
      4          6           0        3.129056    0.045506    0.423508
      5          6           0        4.226152   -0.358552    1.150729
      6          6           0        4.915803   -1.509007    0.754138
      7          1           0        3.052565   -2.398724   -1.954637
      8          1           0        5.775988   -1.844215    1.318053
      9          1           0        5.027630   -3.119353   -0.651030
     10          1           0        4.548637    0.201557    2.020976
     11          7           0        1.598948   -0.069486   -1.278896
     12          6           0        1.006155    0.802382   -0.284841
     13          6           0        2.232589    1.253671    0.578007
     14          6           0        0.728021   -0.852001   -2.131876
     15          1           0       -0.079249   -0.220260   -2.499322
     16          1           0        0.300509   -1.711195   -1.601825
     17          6           0        2.934849    2.462075   -0.057405
     18          1           0        3.137261    2.294876   -1.116404
     19          1           0        3.885776    2.620002    0.451565
     20          1           0        2.337018    3.368229    0.052185
     21          6           0        1.854979    1.582567    2.016152
     22          1           0        1.471824    0.711716    2.542994
     23          1           0        1.096688    2.368329    2.039369
     24          1           0        2.734900    1.950699    2.545645
     25          8           0        0.179802   -0.005942    0.599679
     26          6           0       -1.145583   -0.112442    0.435366
     27          6           0        0.213164    1.904612   -0.916642
     28          6           0       -1.116677    1.908138   -0.936742
     29          6           0       -1.866537    0.832315   -0.309326
     30          1           0        0.778805    2.677552   -1.416602
     31          1           0       -1.665596    2.697922   -1.434504
     32          6           0       -3.242934    0.701784   -0.407554
     33          6           0       -1.793154   -1.167349    1.077321
     34          6           0       -3.162953   -1.291673    0.974927
     35          6           0       -3.868912   -0.354881    0.230236
     36          1           0       -3.822291    1.418132   -0.972894
     37          1           0       -1.207589   -1.874847    1.647683
     38          1           0       -3.686681   -2.101315    1.460600
     39          7           0       -5.317207   -0.486249    0.119354
     40          8           0       -5.919326    0.337948   -0.538623
     41          8           0       -5.854050   -1.413865    0.690225
     42          1           0        1.288827   -1.216112   -2.991443
 ---------------------------------------------------------------------
 Rotational constants (GHZ):           0.6052477           0.1309362           0.1236993
 Leave Link  202 at Tue May  7 19:43:49 2024, MaxMem=  2684354560 cpu:               0.7 elap:               0.1
 (Enter /s/ls4/groups/g0130/bin/g16/l301.exe)
 Standard basis: def2TZVP (5D, 7F)
 Ernie: Thresh=  0.10000D-02 Tol=  0.10000D-05 Strict=F.
 AO basis set in the form of general basis input (Overlap normalization):
      1 0
 S   6 1.00       0.000000000000
      0.1357534968D+05  0.6064550360D-03
      0.2035233368D+04  0.4697908888D-02
      0.4632256236D+03  0.2433247765D-01
      0.1312001960D+03  0.9739996831D-01
      0.4285301589D+02  0.3019558425D+00
      0.1558418577D+02  0.6623360914D+00
 S   2 1.00       0.000000000000
      0.6206713851D+01  0.6559530854D+00
      0.2576489653D+01  0.3758563329D+00
 S   1 1.00       0.000000000000
      0.5769633942D+00  0.1000000000D+01
 S   1 1.00       0.000000000000
      0.2297283136D+00  0.1000000000D+01
 S   1 1.00       0.000000000000
      0.9516444003D-01  0.1000000000D+01
 P   4 1.00       0.000000000000
      0.3469723224D+02  0.1132722000D-01
      0.7958262283D+01  0.7616965920D-01
      0.2378082688D+01  0.3019225220D+00
      0.8143320818D+00  0.7278502735D+00
 P   1 1.00       0.000000000000
      0.2888754725D+00  0.1000000000D+01
 P   1 1.00       0.000000000000
      0.1005682367D+00  0.1000000000D+01
 D   1 1.00       0.000000000000
      0.1097000000D+01  0.1000000000D+01
 D   1 1.00       0.000000000000
      0.3180000000D+00  0.1000000000D+01
 F   1 1.00       0.000000000000
      0.7610000000D+00  0.1000000000D+01
 ****
      2 0
 S   6 1.00       0.000000000000
      0.1357534968D+05  0.6064550360D-03
      0.2035233368D+04  0.4697908888D-02
      0.4632256236D+03  0.2433247765D-01
      0.1312001960D+03  0.9739996831D-01
      0.4285301589D+02  0.3019558425D+00
      0.1558418577D+02  0.6623360914D+00
 S   2 1.00       0.000000000000
      0.6206713851D+01  0.6559530854D+00
      0.2576489653D+01  0.3758563329D+00
 S   1 1.00       0.000000000000
      0.5769633942D+00  0.1000000000D+01
 S   1 1.00       0.000000000000
      0.2297283136D+00  0.1000000000D+01
 S   1 1.00       0.000000000000
      0.9516444003D-01  0.1000000000D+01
 P   4 1.00       0.000000000000
      0.3469723224D+02  0.1132722000D-01
      0.7958262283D+01  0.7616965920D-01
      0.2378082688D+01  0.3019225220D+00
      0.8143320818D+00  0.7278502735D+00
 P   1 1.00       0.000000000000
      0.2888754725D+00  0.1000000000D+01
 P   1 1.00       0.000000000000
      0.1005682367D+00  0.1000000000D+01
 D   1 1.00       0.000000000000
      0.1097000000D+01  0.1000000000D+01
 D   1 1.00       0.000000000000
      0.3180000000D+00  0.1000000000D+01
 F   1 1.00       0.000000000000
      0.7610000000D+00  0.1000000000D+01
 ****
      3 0
 S   6 1.00       0.000000000000
      0.1357534968D+05  0.6064550360D-03
      0.2035233368D+04  0.4697908888D-02
      0.4632256236D+03  0.2433247765D-01
      0.1312001960D+03  0.9739996831D-01
      0.4285301589D+02  0.3019558425D+00
      0.1558418577D+02  0.6623360914D+00
 S   2 1.00       0.000000000000
      0.6206713851D+01  0.6559530854D+00
      0.2576489653D+01  0.3758563329D+00
 S   1 1.00       0.000000000000
      0.5769633942D+00  0.1000000000D+01
 S   1 1.00       0.000000000000
      0.2297283136D+00  0.1000000000D+01
 S   1 1.00       0.000000000000
      0.9516444003D-01  0.1000000000D+01
 P   4 1.00       0.000000000000
      0.3469723224D+02  0.1132722000D-01
      0.7958262283D+01  0.7616965920D-01
      0.2378082688D+01  0.3019225220D+00
      0.8143320818D+00  0.7278502735D+00
 P   1 1.00       0.000000000000
      0.2888754725D+00  0.1000000000D+01
 P   1 1.00       0.000000000000
      0.1005682367D+00  0.1000000000D+01
 D   1 1.00       0.000000000000
      0.1097000000D+01  0.1000000000D+01
 D   1 1.00       0.000000000000
      0.3180000000D+00  0.1000000000D+01
 F   1 1.00       0.000000000000
      0.7610000000D+00  0.1000000000D+01
 ****
      4 0
 S   6 1.00       0.000000000000
      0.1357534968D+05  0.6064550360D-03
      0.2035233368D+04  0.4697908888D-02
      0.4632256236D+03  0.2433247765D-01
      0.1312001960D+03  0.9739996831D-01
      0.4285301589D+02  0.3019558425D+00
      0.1558418577D+02  0.6623360914D+00
 S   2 1.00       0.000000000000
      0.6206713851D+01  0.6559530854D+00
      0.2576489653D+01  0.3758563329D+00
 S   1 1.00       0.000000000000
      0.5769633942D+00  0.1000000000D+01
 S   1 1.00       0.000000000000
      0.2297283136D+00  0.1000000000D+01
 S   1 1.00       0.000000000000
      0.9516444003D-01  0.1000000000D+01
 P   4 1.00       0.000000000000
      0.3469723224D+02  0.1132722000D-01
      0.7958262283D+01  0.7616965920D-01
      0.2378082688D+01  0.3019225220D+00
      0.8143320818D+00  0.7278502735D+00
 P   1 1.00       0.000000000000
      0.2888754725D+00  0.1000000000D+01
 P   1 1.00       0.000000000000
      0.1005682367D+00  0.1000000000D+01
 D   1 1.00       0.000000000000
      0.1097000000D+01  0.1000000000D+01
 D   1 1.00       0.000000000000
      0.3180000000D+00  0.1000000000D+01
 F   1 1.00       0.000000000000
      0.7610000000D+00  0.1000000000D+01
 ****
      5 0
 S   6 1.00       0.000000000000
      0.1357534968D+05  0.6064550360D-03
      0.2035233368D+04  0.4697908888D-02
      0.4632256236D+03  0.2433247765D-01
      0.1312001960D+03  0.9739996831D-01
      0.4285301589D+02  0.3019558425D+00
      0.1558418577D+02  0.6623360914D+00
 S   2 1.00       0.000000000000
      0.6206713851D+01  0.6559530854D+00
      0.2576489653D+01  0.3758563329D+00
 S   1 1.00       0.000000000000
      0.5769633942D+00  0.1000000000D+01
 S   1 1.00       0.000000000000
      0.2297283136D+00  0.1000000000D+01
 S   1 1.00       0.000000000000
      0.9516444003D-01  0.1000000000D+01
 P   4 1.00       0.000000000000
      0.3469723224D+02  0.1132722000D-01
      0.7958262283D+01  0.7616965920D-01
      0.2378082688D+01  0.3019225220D+00
      0.8143320818D+00  0.7278502735D+00
 P   1 1.00       0.000000000000
      0.2888754725D+00  0.1000000000D+01
 P   1 1.00       0.000000000000
      0.1005682367D+00  0.1000000000D+01
 D   1 1.00       0.000000000000
      0.1097000000D+01  0.1000000000D+01
 D   1 1.00       0.000000000000
      0.3180000000D+00  0.1000000000D+01
 F   1 1.00       0.000000000000
      0.7610000000D+00  0.1000000000D+01
 ****
      6 0
 S   6 1.00       0.000000000000
      0.1357534968D+05  0.6064550360D-03
      0.2035233368D+04  0.4697908888D-02
      0.4632256236D+03  0.2433247765D-01
      0.1312001960D+03  0.9739996831D-01
      0.4285301589D+02  0.3019558425D+00
      0.1558418577D+02  0.6623360914D+00
 S   2 1.00       0.000000000000
      0.6206713851D+01  0.6559530854D+00
      0.2576489653D+01  0.3758563329D+00
 S   1 1.00       0.000000000000
      0.5769633942D+00  0.1000000000D+01
 S   1 1.00       0.000000000000
      0.2297283136D+00  0.1000000000D+01
 S   1 1.00       0.000000000000
      0.9516444003D-01  0.1000000000D+01
 P   4 1.00       0.000000000000
      0.3469723224D+02  0.1132722000D-01
      0.7958262283D+01  0.7616965920D-01
      0.2378082688D+01  0.3019225220D+00
      0.8143320818D+00  0.7278502735D+00
 P   1 1.00       0.000000000000
      0.2888754725D+00  0.1000000000D+01
 P   1 1.00       0.000000000000
      0.1005682367D+00  0.1000000000D+01
 D   1 1.00       0.000000000000
      0.1097000000D+01  0.1000000000D+01
 D   1 1.00       0.000000000000
      0.3180000000D+00  0.1000000000D+01
 F   1 1.00       0.000000000000
      0.7610000000D+00  0.1000000000D+01
 ****
      7 0
 S   3 1.00       0.000000000000
      0.3406134100D+02  0.2543930721D-01
      0.5123574600D+01  0.1900859489D+00
      0.1164662600D+01  0.8524411301D+00
 S   1 1.00       0.000000000000
      0.3272304100D+00  0.1000000000D+01
 S   1 1.00       0.000000000000
      0.1030724100D+00  0.1000000000D+01
 P   1 1.00       0.000000000000
      0.8000000000D+00  0.1000000000D+01
 ****
      8 0
 S   3 1.00       0.000000000000
      0.3406134100D+02  0.2543930721D-01
      0.5123574600D+01  0.1900859489D+00
      0.1164662600D+01  0.8524411301D+00
 S   1 1.00       0.000000000000
      0.3272304100D+00  0.1000000000D+01
 S   1 1.00       0.000000000000
      0.1030724100D+00  0.1000000000D+01
 P   1 1.00       0.000000000000
      0.8000000000D+00  0.1000000000D+01
 ****
      9 0
 S   3 1.00       0.000000000000
      0.3406134100D+02  0.2543930721D-01
      0.5123574600D+01  0.1900859489D+00
      0.1164662600D+01  0.8524411301D+00
 S   1 1.00       0.000000000000
      0.3272304100D+00  0.1000000000D+01
 S   1 1.00       0.000000000000
      0.1030724100D+00  0.1000000000D+01
 P   1 1.00       0.000000000000
      0.8000000000D+00  0.1000000000D+01
 ****
     10 0
 S   3 1.00       0.000000000000
      0.3406134100D+02  0.2543930721D-01
      0.5123574600D+01  0.1900859489D+00
      0.1164662600D+01  0.8524411301D+00
 S   1 1.00       0.000000000000
      0.3272304100D+00  0.1000000000D+01
 S   1 1.00       0.000000000000
      0.1030724100D+00  0.1000000000D+01
 P   1 1.00       0.000000000000
      0.8000000000D+00  0.1000000000D+01
 ****
     11 0
 S   6 1.00       0.000000000000
      0.1973080065D+05  0.5862640263D-03
      0.2957895874D+04  0.4542882059D-02
      0.6732213360D+03  0.2355841345D-01
      0.1906824949D+03  0.9470919329D-01
      0.6229544190D+02  0.2971978491D+00
      0.2265416118D+02  0.6691624690D+00
 S   2 1.00       0.000000000000
      0.8979147743D+01  0.6459668363D+00
      0.3686300237D+01  0.3870057439D+00
 S   1 1.00       0.000000000000
      0.8466007680D+00  0.1000000000D+01
 S   1 1.00       0.000000000000
      0.3364713377D+00  0.1000000000D+01
 S   1 1.00       0.000000000000
      0.1364765367D+00  0.1000000000D+01
 P   4 1.00       0.000000000000
      0.4920038051D+02  0.1144882510D-01
      0.1134679054D+02  0.7842233797D-01
      0.3427397241D+01  0.3081809474D+00
      0.1178552513D+01  0.7202719637D+00
 P   1 1.00       0.000000000000
      0.4164220497D+00  0.1000000000D+01
 P   1 1.00       0.000000000000
      0.1426082601D+00  0.1000000000D+01
 D   1 1.00       0.000000000000
      0.1654000000D+01  0.1000000000D+01
 D   1 1.00       0.000000000000
      0.4690000000D+00  0.1000000000D+01
 F   1 1.00       0.000000000000
      0.1093000000D+01  0.1000000000D+01
 ****
     12 0
 S   6 1.00       0.000000000000
      0.1357534968D+05  0.6064550360D-03
      0.2035233368D+04  0.4697908888D-02
      0.4632256236D+03  0.2433247765D-01
      0.1312001960D+03  0.9739996831D-01
      0.4285301589D+02  0.3019558425D+00
      0.1558418577D+02  0.6623360914D+00
 S   2 1.00       0.000000000000
      0.6206713851D+01  0.6559530854D+00
      0.2576489653D+01  0.3758563329D+00
 S   1 1.00       0.000000000000
      0.5769633942D+00  0.1000000000D+01
 S   1 1.00       0.000000000000
      0.2297283136D+00  0.1000000000D+01
 S   1 1.00       0.000000000000
      0.9516444003D-01  0.1000000000D+01
 P   4 1.00       0.000000000000
      0.3469723224D+02  0.1132722000D-01
      0.7958262283D+01  0.7616965920D-01
      0.2378082688D+01  0.3019225220D+00
      0.8143320818D+00  0.7278502735D+00
 P   1 1.00       0.000000000000
      0.2888754725D+00  0.1000000000D+01
 P   1 1.00       0.000000000000
      0.1005682367D+00  0.1000000000D+01
 D   1 1.00       0.000000000000
      0.1097000000D+01  0.1000000000D+01
 D   1 1.00       0.000000000000
      0.3180000000D+00  0.1000000000D+01
 F   1 1.00       0.000000000000
      0.7610000000D+00  0.1000000000D+01
 ****
     13 0
 S   6 1.00       0.000000000000
      0.1357534968D+05  0.6064550360D-03
      0.2035233368D+04  0.4697908888D-02
      0.4632256236D+03  0.2433247765D-01
      0.1312001960D+03  0.9739996831D-01
      0.4285301589D+02  0.3019558425D+00
      0.1558418577D+02  0.6623360914D+00
 S   2 1.00       0.000000000000
      0.6206713851D+01  0.6559530854D+00
      0.2576489653D+01  0.3758563329D+00
 S   1 1.00       0.000000000000
      0.5769633942D+00  0.1000000000D+01
 S   1 1.00       0.000000000000
      0.2297283136D+00  0.1000000000D+01
 S   1 1.00       0.000000000000
      0.9516444003D-01  0.1000000000D+01
 P   4 1.00       0.000000000000
      0.3469723224D+02  0.1132722000D-01
      0.7958262283D+01  0.7616965920D-01
      0.2378082688D+01  0.3019225220D+00
      0.8143320818D+00  0.7278502735D+00
 P   1 1.00       0.000000000000
      0.2888754725D+00  0.1000000000D+01
 P   1 1.00       0.000000000000
      0.1005682367D+00  0.1000000000D+01
 D   1 1.00       0.000000000000
      0.1097000000D+01  0.1000000000D+01
 D   1 1.00       0.000000000000
      0.3180000000D+00  0.1000000000D+01
 F   1 1.00       0.000000000000
      0.7610000000D+00  0.1000000000D+01
 ****
     14 0
 S   6 1.00       0.000000000000
      0.1357534968D+05  0.6064550360D-03
      0.2035233368D+04  0.4697908888D-02
      0.4632256236D+03  0.2433247765D-01
      0.1312001960D+03  0.9739996831D-01
      0.4285301589D+02  0.3019558425D+00
      0.1558418577D+02  0.6623360914D+00
 S   2 1.00       0.000000000000
      0.6206713851D+01  0.6559530854D+00
      0.2576489653D+01  0.3758563329D+00
 S   1 1.00       0.000000000000
      0.5769633942D+00  0.1000000000D+01
 S   1 1.00       0.000000000000
      0.2297283136D+00  0.1000000000D+01
 S   1 1.00       0.000000000000
      0.9516444003D-01  0.1000000000D+01
 P   4 1.00       0.000000000000
      0.3469723224D+02  0.1132722000D-01
      0.7958262283D+01  0.7616965920D-01
      0.2378082688D+01  0.3019225220D+00
      0.8143320818D+00  0.7278502735D+00
 P   1 1.00       0.000000000000
      0.2888754725D+00  0.1000000000D+01
 P   1 1.00       0.000000000000
      0.1005682367D+00  0.1000000000D+01
 D   1 1.00       0.000000000000
      0.1097000000D+01  0.1000000000D+01
 D   1 1.00       0.000000000000
      0.3180000000D+00  0.1000000000D+01
 F   1 1.00       0.000000000000
      0.7610000000D+00  0.1000000000D+01
 ****
     15 0
 S   3 1.00       0.000000000000
      0.3406134100D+02  0.2543930721D-01
      0.5123574600D+01  0.1900859489D+00
      0.1164662600D+01  0.8524411301D+00
 S   1 1.00       0.000000000000
      0.3272304100D+00  0.1000000000D+01
 S   1 1.00       0.000000000000
      0.1030724100D+00  0.1000000000D+01
 P   1 1.00       0.000000000000
      0.8000000000D+00  0.1000000000D+01
 ****
     16 0
 S   3 1.00       0.000000000000
      0.3406134100D+02  0.2543930721D-01
      0.5123574600D+01  0.1900859489D+00
      0.1164662600D+01  0.8524411301D+00
 S   1 1.00       0.000000000000
      0.3272304100D+00  0.1000000000D+01
 S   1 1.00       0.000000000000
      0.1030724100D+00  0.1000000000D+01
 P   1 1.00       0.000000000000
      0.8000000000D+00  0.1000000000D+01
 ****
     17 0
 S   6 1.00       0.000000000000
      0.1357534968D+05  0.6064550360D-03
      0.2035233368D+04  0.4697908888D-02
      0.4632256236D+03  0.2433247765D-01
      0.1312001960D+03  0.9739996831D-01
      0.4285301589D+02  0.3019558425D+00
      0.1558418577D+02  0.6623360914D+00
 S   2 1.00       0.000000000000
      0.6206713851D+01  0.6559530854D+00
      0.2576489653D+01  0.3758563329D+00
 S   1 1.00       0.000000000000
      0.5769633942D+00  0.1000000000D+01
 S   1 1.00       0.000000000000
      0.2297283136D+00  0.1000000000D+01
 S   1 1.00       0.000000000000
      0.9516444003D-01  0.1000000000D+01
 P   4 1.00       0.000000000000
      0.3469723224D+02  0.1132722000D-01
      0.7958262283D+01  0.7616965920D-01
      0.2378082688D+01  0.3019225220D+00
      0.8143320818D+00  0.7278502735D+00
 P   1 1.00       0.000000000000
      0.2888754725D+00  0.1000000000D+01
 P   1 1.00       0.000000000000
      0.1005682367D+00  0.1000000000D+01
 D   1 1.00       0.000000000000
      0.1097000000D+01  0.1000000000D+01
 D   1 1.00       0.000000000000
      0.3180000000D+00  0.1000000000D+01
 F   1 1.00       0.000000000000
      0.7610000000D+00  0.1000000000D+01
 ****
     18 0
 S   3 1.00       0.000000000000
      0.3406134100D+02  0.2543930721D-01
      0.5123574600D+01  0.1900859489D+00
      0.1164662600D+01  0.8524411301D+00
 S   1 1.00       0.000000000000
      0.3272304100D+00  0.1000000000D+01
 S   1 1.00       0.000000000000
      0.1030724100D+00  0.1000000000D+01
 P   1 1.00       0.000000000000
      0.8000000000D+00  0.1000000000D+01
 ****
     19 0
 S   3 1.00       0.000000000000
      0.3406134100D+02  0.2543930721D-01
      0.5123574600D+01  0.1900859489D+00
      0.1164662600D+01  0.8524411301D+00
 S   1 1.00       0.000000000000
      0.3272304100D+00  0.1000000000D+01
 S   1 1.00       0.000000000000
      0.1030724100D+00  0.1000000000D+01
 P   1 1.00       0.000000000000
      0.8000000000D+00  0.1000000000D+01
 ****
     20 0
 S   3 1.00       0.000000000000
      0.3406134100D+02  0.2543930721D-01
      0.5123574600D+01  0.1900859489D+00
      0.1164662600D+01  0.8524411301D+00
 S   1 1.00       0.000000000000
      0.3272304100D+00  0.1000000000D+01
 S   1 1.00       0.000000000000
      0.1030724100D+00  0.1000000000D+01
 P   1 1.00       0.000000000000
      0.8000000000D+00  0.1000000000D+01
 ****
     21 0
 S   6 1.00       0.000000000000
      0.1357534968D+05  0.6064550360D-03
      0.2035233368D+04  0.4697908888D-02
      0.4632256236D+03  0.2433247765D-01
      0.1312001960D+03  0.9739996831D-01
      0.4285301589D+02  0.3019558425D+00
      0.1558418577D+02  0.6623360914D+00
 S   2 1.00       0.000000000000
      0.6206713851D+01  0.6559530854D+00
      0.2576489653D+01  0.3758563329D+00
 S   1 1.00       0.000000000000
      0.5769633942D+00  0.1000000000D+01
 S   1 1.00       0.000000000000
      0.2297283136D+00  0.1000000000D+01
 S   1 1.00       0.000000000000
      0.9516444003D-01  0.1000000000D+01
 P   4 1.00       0.000000000000
      0.3469723224D+02  0.1132722000D-01
      0.7958262283D+01  0.7616965920D-01
      0.2378082688D+01  0.3019225220D+00
      0.8143320818D+00  0.7278502735D+00
 P   1 1.00       0.000000000000
      0.2888754725D+00  0.1000000000D+01
 P   1 1.00       0.000000000000
      0.1005682367D+00  0.1000000000D+01
 D   1 1.00       0.000000000000
      0.1097000000D+01  0.1000000000D+01
 D   1 1.00       0.000000000000
      0.3180000000D+00  0.1000000000D+01
 F   1 1.00       0.000000000000
      0.7610000000D+00  0.1000000000D+01
 ****
     22 0
 S   3 1.00       0.000000000000
      0.3406134100D+02  0.2543930721D-01
      0.5123574600D+01  0.1900859489D+00
      0.1164662600D+01  0.8524411301D+00
 S   1 1.00       0.000000000000
      0.3272304100D+00  0.1000000000D+01
 S   1 1.00       0.000000000000
      0.1030724100D+00  0.1000000000D+01
 P   1 1.00       0.000000000000
      0.8000000000D+00  0.1000000000D+01
 ****
     23 0
 S   3 1.00       0.000000000000
      0.3406134100D+02  0.2543930721D-01
      0.5123574600D+01  0.1900859489D+00
      0.1164662600D+01  0.8524411301D+00
 S   1 1.00       0.000000000000
      0.3272304100D+00  0.1000000000D+01
 S   1 1.00       0.000000000000
      0.1030724100D+00  0.1000000000D+01
 P   1 1.00       0.000000000000
      0.8000000000D+00  0.1000000000D+01
 ****
     24 0
 S   3 1.00       0.000000000000
      0.3406134100D+02  0.2543930721D-01
      0.5123574600D+01  0.1900859489D+00
      0.1164662600D+01  0.8524411301D+00
 S   1 1.00       0.000000000000
      0.3272304100D+00  0.1000000000D+01
 S   1 1.00       0.000000000000
      0.1030724100D+00  0.1000000000D+01
 P   1 1.00       0.000000000000
      0.8000000000D+00  0.1000000000D+01
 ****
     25 0
 S   6 1.00       0.000000000000
      0.2703238263D+05  0.5722733521D-03
      0.4052387139D+04  0.4435323349D-02
      0.9223272271D+03  0.2302010771D-01
      0.2612407099D+03  0.9282249067D-01
      0.8535464135D+02  0.2937850001D+00
      0.3103503524D+02  0.6740160450D+00
 S   2 1.00       0.000000000000
      0.1226086073D+02  0.6383993703D+00
      0.4998707601D+01  0.3953458713D+00
 S   1 1.00       0.000000000000
      0.1170310816D+01  0.1000000000D+01
 S   1 1.00       0.000000000000
      0.4647474099D+00  0.1000000000D+01
 S   1 1.00       0.000000000000
      0.1850453636D+00  0.1000000000D+01
 P   4 1.00       0.000000000000
      0.6327495480D+02  0.1201833222D-01
      0.1462704938D+02  0.8300542179D-01
      0.4450122346D+01  0.3199174393D+00
      0.1527579965D+01  0.7071554292D+00
 P   1 1.00       0.000000000000
      0.5293511794D+00  0.1000000000D+01
 P   1 1.00       0.000000000000
      0.1747842127D+00  0.1000000000D+01
 D   1 1.00       0.000000000000
      0.2314000000D+01  0.1000000000D+01
 D   1 1.00       0.000000000000
      0.6450000000D+00  0.1000000000D+01
 F   1 1.00       0.000000000000
      0.1428000000D+01  0.1000000000D+01
 ****
     26 0
 S   6 1.00       0.000000000000
      0.1357534968D+05  0.6064550360D-03
      0.2035233368D+04  0.4697908888D-02
      0.4632256236D+03  0.2433247765D-01
      0.1312001960D+03  0.9739996831D-01
      0.4285301589D+02  0.3019558425D+00
      0.1558418577D+02  0.6623360914D+00
 S   2 1.00       0.000000000000
      0.6206713851D+01  0.6559530854D+00
      0.2576489653D+01  0.3758563329D+00
 S   1 1.00       0.000000000000
      0.5769633942D+00  0.1000000000D+01
 S   1 1.00       0.000000000000
      0.2297283136D+00  0.1000000000D+01
 S   1 1.00       0.000000000000
      0.9516444003D-01  0.1000000000D+01
 P   4 1.00       0.000000000000
      0.3469723224D+02  0.1132722000D-01
      0.7958262283D+01  0.7616965920D-01
      0.2378082688D+01  0.3019225220D+00
      0.8143320818D+00  0.7278502735D+00
 P   1 1.00       0.000000000000
      0.2888754725D+00  0.1000000000D+01
 P   1 1.00       0.000000000000
      0.1005682367D+00  0.1000000000D+01
 D   1 1.00       0.000000000000
      0.1097000000D+01  0.1000000000D+01
 D   1 1.00       0.000000000000
      0.3180000000D+00  0.1000000000D+01
 F   1 1.00       0.000000000000
      0.7610000000D+00  0.1000000000D+01
 ****
     27 0
 S   6 1.00       0.000000000000
      0.1357534968D+05  0.6064550360D-03
      0.2035233368D+04  0.4697908888D-02
      0.4632256236D+03  0.2433247765D-01
      0.1312001960D+03  0.9739996831D-01
      0.4285301589D+02  0.3019558425D+00
      0.1558418577D+02  0.6623360914D+00
 S   2 1.00       0.000000000000
      0.6206713851D+01  0.6559530854D+00
      0.2576489653D+01  0.3758563329D+00
 S   1 1.00       0.000000000000
      0.5769633942D+00  0.1000000000D+01
 S   1 1.00       0.000000000000
      0.2297283136D+00  0.1000000000D+01
 S   1 1.00       0.000000000000
      0.9516444003D-01  0.1000000000D+01
 P   4 1.00       0.000000000000
      0.3469723224D+02  0.1132722000D-01
      0.7958262283D+01  0.7616965920D-01
      0.2378082688D+01  0.3019225220D+00
      0.8143320818D+00  0.7278502735D+00
 P   1 1.00       0.000000000000
      0.2888754725D+00  0.1000000000D+01
 P   1 1.00       0.000000000000
      0.1005682367D+00  0.1000000000D+01
 D   1 1.00       0.000000000000
      0.1097000000D+01  0.1000000000D+01
 D   1 1.00       0.000000000000
      0.3180000000D+00  0.1000000000D+01
 F   1 1.00       0.000000000000
      0.7610000000D+00  0.1000000000D+01
 ****
     28 0
 S   6 1.00       0.000000000000
      0.1357534968D+05  0.6064550360D-03
      0.2035233368D+04  0.4697908888D-02
      0.4632256236D+03  0.2433247765D-01
      0.1312001960D+03  0.9739996831D-01
      0.4285301589D+02  0.3019558425D+00
      0.1558418577D+02  0.6623360914D+00
 S   2 1.00       0.000000000000
      0.6206713851D+01  0.6559530854D+00
      0.2576489653D+01  0.3758563329D+00
 S   1 1.00       0.000000000000
      0.5769633942D+00  0.1000000000D+01
 S   1 1.00       0.000000000000
      0.2297283136D+00  0.1000000000D+01
 S   1 1.00       0.000000000000
      0.9516444003D-01  0.1000000000D+01
 P   4 1.00       0.000000000000
      0.3469723224D+02  0.1132722000D-01
      0.7958262283D+01  0.7616965920D-01
      0.2378082688D+01  0.3019225220D+00
      0.8143320818D+00  0.7278502735D+00
 P   1 1.00       0.000000000000
      0.2888754725D+00  0.1000000000D+01
 P   1 1.00       0.000000000000
      0.1005682367D+00  0.1000000000D+01
 D   1 1.00       0.000000000000
      0.1097000000D+01  0.1000000000D+01
 D   1 1.00       0.000000000000
      0.3180000000D+00  0.1000000000D+01
 F   1 1.00       0.000000000000
      0.7610000000D+00  0.1000000000D+01
 ****
     29 0
 S   6 1.00       0.000000000000
      0.1357534968D+05  0.6064550360D-03
      0.2035233368D+04  0.4697908888D-02
      0.4632256236D+03  0.2433247765D-01
      0.1312001960D+03  0.9739996831D-01
      0.4285301589D+02  0.3019558425D+00
      0.1558418577D+02  0.6623360914D+00
 S   2 1.00       0.000000000000
      0.6206713851D+01  0.6559530854D+00
      0.2576489653D+01  0.3758563329D+00
 S   1 1.00       0.000000000000
      0.5769633942D+00  0.1000000000D+01
 S   1 1.00       0.000000000000
      0.2297283136D+00  0.1000000000D+01
 S   1 1.00       0.000000000000
      0.9516444003D-01  0.1000000000D+01
 P   4 1.00       0.000000000000
      0.3469723224D+02  0.1132722000D-01
      0.7958262283D+01  0.7616965920D-01
      0.2378082688D+01  0.3019225220D+00
      0.8143320818D+00  0.7278502735D+00
 P   1 1.00       0.000000000000
      0.2888754725D+00  0.1000000000D+01
 P   1 1.00       0.000000000000
      0.1005682367D+00  0.1000000000D+01
 D   1 1.00       0.000000000000
      0.1097000000D+01  0.1000000000D+01
 D   1 1.00       0.000000000000
      0.3180000000D+00  0.1000000000D+01
 F   1 1.00       0.000000000000
      0.7610000000D+00  0.1000000000D+01
 ****
     30 0
 S   3 1.00       0.000000000000
      0.3406134100D+02  0.2543930721D-01
      0.5123574600D+01  0.1900859489D+00
      0.1164662600D+01  0.8524411301D+00
 S   1 1.00       0.000000000000
      0.3272304100D+00  0.1000000000D+01
 S   1 1.00       0.000000000000
      0.1030724100D+00  0.1000000000D+01
 P   1 1.00       0.000000000000
      0.8000000000D+00  0.1000000000D+01
 ****
     31 0
 S   3 1.00       0.000000000000
      0.3406134100D+02  0.2543930721D-01
      0.5123574600D+01  0.1900859489D+00
      0.1164662600D+01  0.8524411301D+00
 S   1 1.00       0.000000000000
      0.3272304100D+00  0.1000000000D+01
 S   1 1.00       0.000000000000
      0.1030724100D+00  0.1000000000D+01
 P   1 1.00       0.000000000000
      0.8000000000D+00  0.1000000000D+01
 ****
     32 0
 S   6 1.00       0.000000000000
      0.1357534968D+05  0.6064550360D-03
      0.2035233368D+04  0.4697908888D-02
      0.4632256236D+03  0.2433247765D-01
      0.1312001960D+03  0.9739996831D-01
      0.4285301589D+02  0.3019558425D+00
      0.1558418577D+02  0.6623360914D+00
 S   2 1.00       0.000000000000
      0.6206713851D+01  0.6559530854D+00
      0.2576489653D+01  0.3758563329D+00
[...]
 E= -1069.85248463317    
 DIIS: error= 2.56D-03 at cycle   1 NSaved=   1.
 NSaved= 1 IEnMin= 1 EnMin= -1069.85248463317     IErMin= 1 ErrMin= 2.56D-03
 ErrMax= 2.56D-03  0.00D+00 EMaxC= 1.00D-01 BMatC= 2.42D-02 BMatP= 2.42D-02
 IDIUse=3 WtCom= 9.74D-01 WtEn= 2.56D-02
 Coeff-Com:  0.100D+01
 Coeff-En:   0.100D+01
 Coeff:      0.100D+01
 Gap=     0.771 Goal=   None    Shift=    0.000
 GapD=    0.771 DampG=2.000 DampE=1.000 DampFc=2.0000 IDamp=-1.
 RMSDP=3.82D-04 MaxDP=2.00D-02              OVMax= 2.72D-02

 Cycle   2  Pass 1  IDiag  1:
 RMSU=  3.82D-04    CP:  9.99D-01
 E= -1069.88350311471     Delta-E=       -0.031018481543 Rises=F Damp=F
 DIIS: error= 6.82D-04 at cycle   2 NSaved=   2.
 NSaved= 2 IEnMin= 2 EnMin= -1069.88350311471     IErMin= 2 ErrMin= 6.82D-04
 ErrMax= 6.82D-04  0.00D+00 EMaxC= 1.00D-01 BMatC= 6.96D-04 BMatP= 2.42D-02
 IDIUse=3 WtCom= 9.93D-01 WtEn= 6.82D-03
 Coeff-Com: -0.115D+00 0.111D+01
 Coeff-En:   0.000D+00 0.100D+01
 Coeff:     -0.114D+00 0.111D+01
 Gap=     0.181 Goal=   None    Shift=    0.000
 RMSDP=7.89D-05 MaxDP=7.31D-03 DE=-3.10D-02 OVMax= 1.24D-02

 Cycle   3  Pass 1  IDiag  1:
 RMSU=  6.65D-05    CP:  9.99D-01  1.11D+00
 E= -1069.88522668453     Delta-E=       -0.001723569821 Rises=F Damp=F
 DIIS: error= 2.74D-04 at cycle   3 NSaved=   3.
 NSaved= 3 IEnMin= 3 EnMin= -1069.88522668453     IErMin= 3 ErrMin= 2.74D-04
 ErrMax= 2.74D-04  0.00D+00 EMaxC= 1.00D-01 BMatC= 1.53D-04 BMatP= 6.96D-04
 IDIUse=3 WtCom= 9.97D-01 WtEn= 2.74D-03
 Coeff-Com: -0.454D-01 0.314D+00 0.732D+00
 Coeff-En:   0.000D+00 0.000D+00 0.100D+01
 Coeff:     -0.453D-01 0.313D+00 0.732D+00
 Gap=     0.179 Goal=   None    Shift=    0.000
 RMSDP=3.24D-05 MaxDP=2.28D-03 DE=-1.72D-03 OVMax= 4.69D-03

 Cycle   4  Pass 1  IDiag  1:
 RMSU=  3.22D-05    CP:  9.99D-01  1.12D+00  1.00D+00
 E= -1069.88534618215     Delta-E=       -0.000119497614 Rises=F Damp=F
 DIIS: error= 2.16D-04 at cycle   4 NSaved=   4.
 NSaved= 4 IEnMin= 4 EnMin= -1069.88534618215     IErMin= 4 ErrMin= 2.16D-04
 ErrMax= 2.16D-04  0.00D+00 EMaxC= 1.00D-01 BMatC= 9.64D-05 BMatP= 1.53D-04
 IDIUse=3 WtCom= 9.98D-01 WtEn= 2.16D-03
 Coeff-Com:  0.340D-02-0.109D+00 0.459D+00 0.647D+00
 Coeff-En:   0.000D+00 0.000D+00 0.155D+00 0.845D+00
 Coeff:      0.339D-02-0.109D+00 0.458D+00 0.648D+00
 Gap=     0.180 Goal=   None    Shift=    0.000
 RMSDP=1.88D-05 MaxDP=1.35D-03 DE=-1.19D-04 OVMax= 4.57D-03

 Cycle   5  Pass 1  IDiag  1:
 RMSU=  1.04D-05    CP:  9.99D-01  1.12D+00  1.20D+00  7.41D-01
 E= -1069.88544427833     Delta-E=       -0.000098096185 Rises=F Damp=F
 DIIS: error= 7.11D-05 at cycle   5 NSaved=   5.
 NSaved= 5 IEnMin= 5 EnMin= -1069.88544427833     IErMin= 5 ErrMin= 7.11D-05
 ErrMax= 7.11D-05  0.00D+00 EMaxC= 1.00D-01 BMatC= 4.79D-06 BMatP= 9.64D-05
 IDIUse=1 WtCom= 1.00D+00 WtEn= 0.00D+00
 Coeff-Com:  0.407D-02-0.658D-01 0.149D+00 0.271D+00 0.642D+00
 Coeff:      0.407D-02-0.658D-01 0.149D+00 0.271D+00 0.642D+00
 Gap=     0.180 Goal=   None    Shift=    0.000
 RMSDP=5.94D-06 MaxDP=4.63D-04 DE=-9.81D-05 OVMax= 2.23D-03

 Cycle   6  Pass 1  IDiag  1:
 RMSU=  4.60D-06    CP:  9.99D-01  1.12D+00  1.24D+00  8.21D-01  1.08D+00
 E= -1069.88545476428     Delta-E=       -0.000010485949 Rises=F Damp=F
 DIIS: error= 4.73D-05 at cycle   6 NSaved=   6.
 NSaved= 6 IEnMin= 6 EnMin= -1069.88545476428     IErMin= 6 ErrMin= 4.73D-05
 ErrMax= 4.73D-05  0.00D+00 EMaxC= 1.00D-01 BMatC= 1.69D-06 BMatP= 4.79D-06
 IDIUse=1 WtCom= 1.00D+00 WtEn= 0.00D+00
 Coeff-Com:  0.940D-03 0.459D-02-0.889D-01-0.933D-01 0.329D+00 0.848D+00
 Coeff:      0.940D-03 0.459D-02-0.889D-01-0.933D-01 0.329D+00 0.848D+00
 Gap=     0.180 Goal=   None    Shift=    0.000
 RMSDP=6.31D-06 MaxDP=4.23D-04 DE=-1.05D-05 OVMax= 2.81D-03

 Cycle   7  Pass 1  IDiag  1:
 RMSU=  3.66D-06    CP:  9.99D-01  1.12D+00  1.28D+00  8.56D-01  1.46D+00
                    CP:  1.17D+00
 E= -1069.88546195439     Delta-E=       -0.000007190104 Rises=F Damp=F
 DIIS: error= 2.90D-05 at cycle   7 NSaved=   7.
 NSaved= 7 IEnMin= 7 EnMin= -1069.88546195439     IErMin= 7 ErrMin= 2.90D-05
 ErrMax= 2.90D-05  0.00D+00 EMaxC= 1.00D-01 BMatC= 4.65D-07 BMatP= 1.69D-06
 IDIUse=1 WtCom= 1.00D+00 WtEn= 0.00D+00
 Coeff-Com: -0.963D-03 0.250D-01-0.856D-01-0.130D+00-0.819D-01 0.363D+00
 Coeff-Com:  0.910D+00
 Coeff:     -0.963D-03 0.250D-01-0.856D-01-0.130D+00-0.819D-01 0.363D+00
 Coeff:      0.910D+00
 Gap=     0.180 Goal=   None    Shift=    0.000
 RMSDP=4.05D-06 MaxDP=3.13D-04 DE=-7.19D-06 OVMax= 2.09D-03

 Cycle   8  Pass 1  IDiag  1:
 RMSU=  1.65D-06    CP:  9.99D-01  1.12D+00  1.31D+00  8.82D-01  1.66D+00
                    CP:  1.62D+00  1.30D+00
 E= -1069.88546450432     Delta-E=       -0.000002549931 Rises=F Damp=F
 DIIS: error= 1.33D-05 at cycle   8 NSaved=   8.
 NSaved= 8 IEnMin= 8 EnMin= -1069.88546450432     IErMin= 8 ErrMin= 1.33D-05
 ErrMax= 1.33D-05  0.00D+00 EMaxC= 1.00D-01 BMatC= 1.77D-07 BMatP= 4.65D-07
 IDIUse=1 WtCom= 1.00D+00 WtEn= 0.00D+00
 Coeff-Com: -0.897D-03 0.143D-01-0.245D-01-0.498D-01-0.145D+00-0.318D-01
 Coeff-Com:  0.536D+00 0.702D+00
 Coeff:     -0.897D-03 0.143D-01-0.245D-01-0.498D-01-0.145D+00-0.318D-01
 Coeff:      0.536D+00 0.702D+00
 Gap=     0.180 Goal=   None    Shift=    0.000
 RMSDP=2.09D-06 MaxDP=1.33D-04 DE=-2.55D-06 OVMax= 1.01D-03

 Cycle   9  Pass 1  IDiag  1:
 RMSU=  7.66D-07    CP:  9.99D-01  1.12D+00  1.32D+00  8.91D-01  1.77D+00
                    CP:  1.77D+00  1.60D+00  1.08D+00
 E= -1069.88546507721     Delta-E=       -0.000000572893 Rises=F Damp=F
 DIIS: error= 4.94D-06 at cycle   9 NSaved=   9.
 NSaved= 9 IEnMin= 9 EnMin= -1069.88546507721     IErMin= 9 ErrMin= 4.94D-06
 ErrMax= 4.94D-06  0.00D+00 EMaxC= 1.00D-01 BMatC= 2.31D-08 BMatP= 1.77D-07
 IDIUse=1 WtCom= 1.00D+00 WtEn= 0.00D+00
 Coeff-Com: -0.131D-03-0.179D-03 0.982D-02 0.102D-01-0.341D-01-0.940D-01
 Coeff-Com: -0.812D-02 0.263D+00 0.853D+00
 Coeff:     -0.131D-03-0.179D-03 0.982D-02 0.102D-01-0.341D-01-0.940D-01
 Coeff:     -0.812D-02 0.263D+00 0.853D+00
 Gap=     0.180 Goal=   None    Shift=    0.000
 RMSDP=7.93D-07 MaxDP=6.33D-05 DE=-5.73D-07 OVMax= 4.11D-04

 Cycle  10  Pass 1  IDiag  1:
 RMSU=  2.87D-07    CP:  9.99D-01  1.12D+00  1.32D+00  8.96D-01  1.80D+00
                    CP:  1.84D+00  1.72D+00  1.26D+00  1.02D+00
 E= -1069.88546516258     Delta-E=       -0.000000085370 Rises=F Damp=F
 DIIS: error= 1.93D-06 at cycle  10 NSaved=  10.
 NSaved=10 IEnMin=10 EnMin= -1069.88546516258     IErMin=10 ErrMin= 1.93D-06
 ErrMax= 1.93D-06  0.00D+00 EMaxC= 1.00D-01 BMatC= 6.27D-09 BMatP= 2.31D-08
 IDIUse=1 WtCom= 1.00D+00 WtEn= 0.00D+00
 Coeff-Com:  0.110D-03-0.296D-02 0.941D-02 0.146D-01 0.130D-01-0.393D-01
 Coeff-Com: -0.111D+00-0.138D-01 0.425D+00 0.705D+00
 Coeff:      0.110D-03-0.296D-02 0.941D-02 0.146D-01 0.130D-01-0.393D-01
 Coeff:     -0.111D+00-0.138D-01 0.425D+00 0.705D+00
 Gap=     0.180 Goal=   None    Shift=    0.000
 RMSDP=2.82D-07 MaxDP=1.81D-05 DE=-8.54D-08 OVMax= 1.33D-04

 Cycle  11  Pass 1  IDiag  1:
 RMSU=  1.27D-07    CP:  9.99D-01  1.12D+00  1.33D+00  8.97D-01  1.81D+00
                    CP:  1.86D+00  1.75D+00  1.31D+00  1.14D+00  1.08D+00
 E= -1069.88546517662     Delta-E=       -0.000000014044 Rises=F Damp=F
 DIIS: error= 8.13D-07 at cycle  11 NSaved=  11.
 NSaved=11 IEnMin=11 EnMin= -1069.88546517662     IErMin=11 ErrMin= 8.13D-07
 ErrMax= 8.13D-07  0.00D+00 EMaxC= 1.00D-01 BMatC= 6.00D-10 BMatP= 6.27D-09
 IDIUse=1 WtCom= 1.00D+00 WtEn= 0.00D+00
 Coeff-Com:  0.471D-04-0.801D-03 0.122D-02 0.262D-02 0.833D-02 0.123D-02
 Coeff-Com: -0.289D-01-0.396D-01 0.541D-02 0.192D+00 0.858D+00
 Coeff:      0.471D-04-0.801D-03 0.122D-02 0.262D-02 0.833D-02 0.123D-02
 Coeff:     -0.289D-01-0.396D-01 0.541D-02 0.192D+00 0.858D+00
 Gap=     0.180 Goal=   None    Shift=    0.000
 RMSDP=1.02D-07 MaxDP=5.54D-06 DE=-1.40D-08 OVMax= 3.73D-05

 Cycle  12  Pass 1  IDiag  1:
 RMSU=  5.79D-08    CP:  9.99D-01  1.12D+00  1.33D+00  8.98D-01  1.81D+00
                    CP:  1.86D+00  1.76D+00  1.31D+00  1.19D+00  1.20D+00
                    CP:  1.17D+00
 E= -1069.88546517869     Delta-E=       -0.000000002068 Rises=F Damp=F
 DIIS: error= 4.59D-07 at cycle  12 NSaved=  12.
 NSaved=12 IEnMin=12 EnMin= -1069.88546517869     IErMin=12 ErrMin= 4.59D-07
 ErrMax= 4.59D-07  0.00D+00 EMaxC= 1.00D-01 BMatC= 1.96D-10 BMatP= 6.00D-10
 IDIUse=1 WtCom= 1.00D+00 WtEn= 0.00D+00
 Coeff-Com: -0.103D-04 0.468D-03-0.201D-02-0.282D-02 0.113D-03 0.108D-01
 Coeff-Com:  0.179D-01-0.137D-01-0.113D+00-0.111D+00 0.375D+00 0.839D+00
 Coeff:     -0.103D-04 0.468D-03-0.201D-02-0.282D-02 0.113D-03 0.108D-01
 Coeff:      0.179D-01-0.137D-01-0.113D+00-0.111D+00 0.375D+00 0.839D+00
 Gap=     0.180 Goal=   None    Shift=    0.000
 RMSDP=5.83D-08 MaxDP=3.78D-06 DE=-2.07D-09 OVMax= 2.14D-05

 Cycle  13  Pass 1  IDiag  1:
 RMSU=  2.88D-08    CP:  9.99D-01  1.12D+00  1.33D+00  8.98D-01  1.82D+00
                    CP:  1.86D+00  1.76D+00  1.32D+00  1.20D+00  1.27D+00
                    CP:  1.46D+00  1.12D+00
 E= -1069.88546517927     Delta-E=       -0.000000000580 Rises=F Damp=F
 DIIS: error= 1.27D-07 at cycle  13 NSaved=  13.
 NSaved=13 IEnMin=13 EnMin= -1069.88546517927     IErMin=13 ErrMin= 1.27D-07
 ErrMax= 1.27D-07  0.00D+00 EMaxC= 1.00D-01 BMatC= 3.17D-11 BMatP= 1.96D-10
 IDIUse=1 WtCom= 1.00D+00 WtEn= 0.00D+00
 Coeff-Com: -0.120D-04 0.334D-03-0.103D-02-0.161D-02-0.131D-02 0.430D-02
 Coeff-Com:  0.125D-01 0.640D-03-0.493D-01-0.809D-01 0.739D-02 0.354D+00
 Coeff-Com:  0.755D+00
 Coeff:     -0.120D-04 0.334D-03-0.103D-02-0.161D-02-0.131D-02 0.430D-02
 Coeff:      0.125D-01 0.640D-03-0.493D-01-0.809D-01 0.739D-02 0.354D+00
 Coeff:      0.755D+00
 Gap=     0.180 Goal=   None    Shift=    0.000
 RMSDP=2.07D-08 MaxDP=1.33D-06 DE=-5.80D-10 OVMax= 7.90D-06

 Cycle  14  Pass 1  IDiag  1:
 RMSU=  1.05D-08    CP:  9.99D-01  1.12D+00  1.33D+00  8.98D-01  1.82D+00
                    CP:  1.86D+00  1.76D+00  1.32D+00  1.21D+00  1.30D+00
                    CP:  1.52D+00  1.29D+00  1.04D+00
 E= -1069.88546517937     Delta-E=       -0.000000000095 Rises=F Damp=F
 DIIS: error= 4.75D-08 at cycle  14 NSaved=  14.
 NSaved=14 IEnMin=14 EnMin= -1069.88546517937     IErMin=14 ErrMin= 4.75D-08
 ErrMax= 4.75D-08  0.00D+00 EMaxC= 1.00D-01 BMatC= 3.64D-12 BMatP= 3.17D-11
 IDIUse=1 WtCom= 1.00D+00 WtEn= 0.00D+00
 Coeff-Com: -0.278D-05 0.536D-04-0.876D-04-0.191D-03-0.485D-03 0.575D-05
 Coeff-Com:  0.202D-02 0.231D-02-0.206D-02-0.135D-01-0.493D-01 0.994D-02
 Coeff-Com:  0.272D+00 0.779D+00
 Coeff:     -0.278D-05 0.536D-04-0.876D-04-0.191D-03-0.485D-03 0.575D-05
 Coeff:      0.202D-02 0.231D-02-0.206D-02-0.135D-01-0.493D-01 0.994D-02
 Coeff:      0.272D+00 0.779D+00
 Gap=     0.180 Goal=   None    Shift=    0.000
 RMSDP=6.99D-09 MaxDP=4.40D-07 DE=-9.50D-11 OVMax= 2.14D-06

 Error on total polarization charges =  0.01728
 SCF Done:  E(RM062X) =  -1069.88546518     A.U. after   14 cycles
            NFock= 14  Conv=0.70D-08     -V/T= 2.0049
 KE= 1.064649638972D+03 PE=-6.596080500990D+03 EE= 2.408380342187D+03
 Leave Link  502 at Thu May  9 10:36:38 2024, MaxMem=  2684354560 cpu:           14576.0 elap:             608.2
 (Enter /s/ls4/groups/g0130/bin/g16/l801.exe)
 DoSCS=F DFT=T ScalE2(SS,OS)=  1.000000  1.000000
 ExpMin= 9.52D-02 ExpMax= 2.70D+04 ExpMxC= 9.22D+02 IAcc=3 IRadAn=         5 AccDes= 0.00D+00
 HarFok:  IExCor=  205 AccDes= 0.00D+00 IRadAn=         5 IDoV=-2 UseB2=F ITyADJ=14
 ICtDFT= 12500011 ScaDFX=  1.000000  1.000000  1.000000  1.000000
 GSVD:  LWork=        -768 too small for GESVD, short by        3240 words or        3240 for optimal perf.
 Largest valence mixing into a core orbital is  1.12D-04
 Largest core mixing into a valence orbital is  2.80D-05
 Range of M.O.s used for correlation:    25   852
 NBasis=   852 NAE=    85 NBE=    85 NFC=    24 NFV=     0
 NROrb=    828 NOA=    61 NOB=    61 NVA=   767 NVB=   767

 **** Warning!!: The largest alpha MO coefficient is  0.50859320D+02

 Leave Link  801 at Thu May  9 10:36:38 2024, MaxMem=  2684354560 cpu:               5.3 elap:               0.3
 (Enter /s/ls4/groups/g0130/bin/g16/l914.exe)
 RHF ground state
 Two-electron integrals replicated using symmetry.
 MDV=  2684354560 DFT=T DoStab=F Mixed=T DoRPA=T DoScal=F NonHer=T
 NEqPCM:  Using equilibrium solvation (IEInf=0, Eps=  35.6880, EpsInf=   1.8069)
 Making orbital integer symmetry assigments:
 Orbital symmetries:
       Occupied  (A) (A) (A) (A) (A) (A) (A) (A) (A) (A) (A) (A)
                 (A) (A) (A) (A) (A) (A) (A) (A) (A) (A) (A) (A)
                 (A) (A) (A) (A) (A) (A) (A) (A) (A) (A) (A) (A)
                 (A) (A) (A) (A) (A) (A) (A) (A) (A) (A) (A) (A)
                 (A) (A) (A) (A) (A) (A) (A) (A) (A) (A) (A) (A)
                 (A) (A) (A) (A) (A) (A) (A) (A) (A) (A) (A) (A)
                 (A) (A) (A) (A) (A) (A) (A) (A) (A) (A) (A) (A)
                 (A)
       Virtual   (A) (A) (A) (A) (A) (A) (A) (A) (A) (A) (A) (A)
                 (A) (A) (A) (A) (A) (A) (A) (A) (A) (A) (A) (A)
                 (A) (A) (A) (A) (A) (A) (A) (A) (A) (A) (A) (A)
                 (A) (A) (A) (A) (A) (A) (A) (A) (A) (A) (A) (A)
                 (A) (A) (A) (A) (A) (A) (A) (A) (A) (A) (A) (A)
                 (A) (A) (A) (A) (A) (A) (A) (A) (A) (A) (A) (A)
                 (A) (A) (A) (A) (A) (A) (A) (A) (A) (A) (A) (A)
                 (A) (A) (A) (A) (A) (A) (A) (A) (A) (A) (A) (A)
                 (A) (A) (A) (A) (A) (A) (A) (A) (A) (A) (A) (A)
                 (A) (A) (A) (A) (A) (A) (A) (A) (A) (A) (A) (A)
                 (A) (A) (A) (A) (A) (A) (A) (A) (A) (A) (A) (A)
                 (A) (A) (A) (A) (A) (A) (A) (A) (A) (A) (A) (A)
                 (A) (A) (A) (A) (A) (A) (A) (A) (A) (A) (A) (A)
                 (A) (A) (A) (A) (A) (A) (A) (A) (A) (A) (A) (A)
                 (A) (A) (A) (A) (A) (A) (A) (A) (A) (A) (A) (A)
                 (A) (A) (A) (A) (A) (A) (A) (A) (A) (A) (A) (A)
                 (A) (A) (A) (A) (A) (A) (A) (A) (A) (A) (A) (A)
                 (A) (A) (A) (A) (A) (A) (A) (A) (A) (A) (A) (A)
                 (A) (A) (A) (A) (A) (A) (A) (A) (A) (A) (A) (A)
                 (A) (A) (A) (A) (A) (A) (A) (A) (A) (A) (A) (A)
                 (A) (A) (A) (A) (A) (A) (A) (A) (A) (A) (A) (A)
                 (A) (A) (A) (A) (A) (A) (A) (A) (A) (A) (A) (A)
                 (A) (A) (A) (A) (A) (A) (A) (A) (A) (A) (A) (A)
                 (A) (A) (A) (A) (A) (A) (A) (A) (A) (A) (A) (A)
                 (A) (A) (A) (A) (A) (A) (A) (A) (A) (A) (A) (A)
                 (A) (A) (A) (A) (A) (A) (A) (A) (A) (A) (A) (A)
                 (A) (A) (A) (A) (A) (A) (A) (A) (A) (A) (A) (A)
                 (A) (A) (A) (A) (A) (A) (A) (A) (A) (A) (A) (A)
                 (A) (A) (A) (A) (A) (A) (A) (A) (A) (A) (A) (A)
                 (A) (A) (A) (A) (A) (A) (A) (A) (A) (A) (A) (A)
                 (A) (A) (A) (A) (A) (A) (A) (A) (A) (A) (A) (A)
                 (A) (A) (A) (A) (A) (A) (A) (A) (A) (A) (A) (A)
                 (A) (A) (A) (A) (A) (A) (A) (A) (A) (A) (A) (A)
                 (A) (A) (A) (A) (A) (A) (A) (A) (A) (A) (A) (A)
                 (A) (A) (A) (A) (A) (A) (A) (A) (A) (A) (A) (A)
                 (A) (A) (A) (A) (A) (A) (A) (A) (A) (A) (A) (A)
                 (A) (A) (A) (A) (A) (A) (A) (A) (A) (A) (A) (A)
                 (A) (A) (A) (A) (A) (A) (A) (A) (A) (A) (A) (A)
                 (A) (A) (A) (A) (A) (A) (A) (A) (A) (A) (A) (A)
                 (A) (A) (A) (A) (A) (A) (A) (A) (A) (A) (A) (A)
                 (A) (A) (A) (A) (A) (A) (A) (A) (A) (A) (A) (A)
                 (A) (A) (A) (A) (A) (A) (A) (A) (A) (A) (A) (A)
                 (A) (A) (A) (A) (A) (A) (A) (A) (A) (A) (A) (A)
                 (A) (A) (A) (A) (A) (A) (A) (A) (A) (A) (A) (A)
                 (A) (A) (A) (A) (A) (A) (A) (A) (A) (A) (A) (A)
                 (A) (A) (A) (A) (A) (A) (A) (A) (A) (A) (A) (A)
                 (A) (A) (A) (A) (A) (A) (A) (A) (A) (A) (A) (A)
                 (A) (A) (A) (A) (A) (A) (A) (A) (A) (A) (A) (A)
                 (A) (A) (A) (A) (A) (A) (A) (A) (A) (A) (A) (A)
                 (A) (A) (A) (A) (A) (A) (A) (A) (A) (A) (A) (A)
                 (A) (A) (A) (A) (A) (A) (A) (A) (A) (A) (A) (A)
                 (A) (A) (A) (A) (A) (A) (A) (A) (A) (A) (A) (A)
                 (A) (A) (A) (A) (A) (A) (A) (A) (A) (A) (A) (A)
                 (A) (A) (A) (A) (A) (A) (A) (A) (A) (A) (A) (A)
                 (A) (A) (A) (A) (A) (A) (A) (A) (A) (A) (A) (A)
                 (A) (A) (A) (A) (A) (A) (A) (A) (A) (A) (A) (A)
                 (A) (A) (A) (A) (A) (A) (A) (A) (A) (A) (A) (A)
                 (A) (A) (A) (A) (A) (A) (A) (A) (A) (A) (A) (A)
                 (A) (A) (A) (A) (A) (A) (A) (A) (A) (A) (A) (A)
                 (A) (A) (A) (A) (A) (A) (A) (A) (A) (A) (A) (A)
                 (A) (A) (A) (A) (A) (A) (A) (A) (A) (A) (A) (A)
                 (A) (A) (A) (A) (A) (A) (A) (A) (A) (A) (A) (A)
                 (A) (A) (A) (A) (A) (A) (A) (A) (A) (A) (A) (A)
                 (A) (A) (A) (A) (A) (A) (A) (A) (A) (A) (A)
 Generating guess from densities on rwf.
 Convergence on wavefunction:    0.000001000000000
 Davidson Disk Diagonalization:  ConvIn= 1.00D-06 SkipCon=T Conv= 1.00D-06.
 Max sub-space:  2000 roots to seek:     5 dimension of matrix:        93574
 Iteration     1 Dimension    10 NMult     0 NNew     10
 CISAX will form    10 AO SS matrices at one time.
 NMat=    10 NSing=    10 JSym2X= 0.
 FoFJK:  IHMeth= 1 ICntrl=       0 DoSepK=F KAlg= 0 I1Cent=           0 FoldK=F
 IRaf= 790000000 NMat=      20 IRICut=       1 DoRegI=T DoRafI=F ISym2E= 0 IDoP0=3 IntGTp=3.
 FoFCou: FMM=F IPFlag=           0 FMFlag=      100000 FMFlg1=           0
         NFxFlg=           0 DoJE=F BraDBF=F KetDBF=F FulRan=T
         wScrn=  0.000000 ICntrl=         0 IOpCl=  0 I1Cent=           0 NGrid=           0
         NMat0=   20 NMatS0=     10 NMatT0=    0 NMatD0=   20 NMtDS0=    0 NMtDT0=    0
 Symmetry not used in FoFCou.
 Excitation Energies [eV] at current iteration:
 Root      1 :     2.452600557500631
 Root      2 :     3.639176028538416
 Root      3 :     3.785186108046145
 Root      4 :     4.343201199996984
 Root      5 :     4.492148302903901
 Iteration     2 Dimension    20 NMult    10 NNew     10
 CISAX will form    10 AO SS matrices at one time.
 NMat=    10 NSing=    10 JSym2X= 0.
 Root      1 not converged, maximum delta is    0.021745079687073
 Root      2 not converged, maximum delta is    0.017714947564177
 Root      3 not converged, maximum delta is    0.019384890952344
 Root      4 not converged, maximum delta is    0.015179373590604
 Root      5 not converged, maximum delta is    0.012539609800809
 Excitation Energies [eV] at current iteration:
 Root      1 :     2.418751718937057   Change is   -0.033848838563574
 Root      2 :     3.591003082744398   Change is   -0.048172945794018
 Root      3 :     3.748559196739720   Change is   -0.036626911306425
 Root      4 :     4.296796341768965   Change is   -0.046404858228019
 Root      5 :     4.474673604349404   Change is   -0.017474698554497
 Iteration     3 Dimension    30 NMult    20 NNew     10
 CISAX will form    10 AO SS matrices at one time.
 NMat=    10 NSing=    10 JSym2X= 0.
 Root      1 not converged, maximum delta is    0.003512389148331
 Root      2 not converged, maximum delta is    0.003356641783181
 Root      3 not converged, maximum delta is    0.001938669468625
 Root      4 not converged, maximum delta is    0.003542615249743
 Root      5 not converged, maximum delta is    0.003981558414449
 Excitation Energies [eV] at current iteration:
 Root      1 :     2.416274891236871   Change is   -0.002476827700186
 Root      2 :     3.589802192591035   Change is   -0.001200890153364
 Root      3 :     3.747682428551981   Change is   -0.000876768187739
 Root      4 :     4.295412551315238   Change is   -0.001383790453727
 Root      5 :     4.473517393760976   Change is   -0.001156210588428
 Iteration     4 Dimension    40 NMult    30 NNew     10
 CISAX will form    10 AO SS matrices at one time.
 NMat=    10 NSing=    10 JSym2X= 0.
