 Entering Gaussian System, Link 0=/s/ls4/groups/g0130/bin/g16/g16
 Input=sp1_s1_m062x.gjf
 Output=sp1_s1_m062x.log
 Initial command:
 /s/ls4/groups/g0130/bin/g16/l1.exe "/dev/shm/scratch_artd/Gau-28034.inp" -scrdir="/dev/shm/scratch_artd/"
 Entering Link 1 = /s/ls4/groups/g0130/bin/g16/l1.exe PID=     28035.
  
 Copyright (c) 1988,1990,1992,1993,1995,1998,2003,2009,2016,
            Gaussian, Inc.  All Rights Reserved.
  
 This is part of the Gaussian(R) 16 program.  It is based on
 the Gaussian(R) 09 system (copyright 2009, Gaussian, Inc.),
 the Gaussian(R) 03 system (copyright 2003, Gaussian, Inc.),
 the Gaussian(R) 98 system (copyright 1998, Gaussian, Inc.),
 the Gaussian(R) 94 system (copyright 1995, Gaussian, Inc.),
 the Gaussian 92(TM) system (copyright 1992, Gaussian, Inc.),
 the Gaussian 90(TM) system (copyright 1990, Gaussian, Inc.),
 the Gaussian 88(TM) system (copyright 1988, Gaussian, Inc.),
 the Gaussian 86(TM) system (copyright 1986, Carnegie Mellon
 University), and the Gaussian 82(TM) system (copyright 1983,
 Carnegie Mellon University). Gaussian is a federally registered
 trademark of Gaussian, Inc.
  
 This software contains proprietary and confidential information,
 including trade secrets, belonging to Gaussian, Inc.
  
 This software is provided under written license and may be
 used, copied, transmitted, or stored only in accord with that
 written license.
  
 The following legend is applicable only to US Government
 contracts under FAR:
  
                    RESTRICTED RIGHTS LEGEND
  
 Use, reproduction and disclosure by the US Government is
 subject to restrictions as set forth in subparagraphs (a)
 and (c) of the Commercial Computer Software - Restricted
 Rights clause in FAR 52.227-19.
  
 Gaussian, Inc.
 340 Quinnipiac St., Bldg. 40, Wallingford CT 06492
  
  
 ---------------------------------------------------------------
 Warning -- This program may not be used in any manner that
 competes with the business of Gaussian, Inc. or will provide
 assistance to any competitor of Gaussian, Inc.  The licensee
 of this program is prohibited from giving any competitor of
 Gaussian, Inc. access to this program.  By using this program,
 the user acknowledges that Gaussian, Inc. is engaged in the
 business of creating and licensing software in the field of
 computational chemistry and represents and warrants to the
 licensee that it is not a competitor of Gaussian, Inc. and that
 it will not use this program in any manner prohibited above.
 ---------------------------------------------------------------
  

 Cite this work as:
 Gaussian 16, Revision A.03,
 M. J. Frisch, G. W. Trucks, H. B. Schlegel, G. E. Scuseria, 
 M. A. Robb, J. R. Cheeseman, G. Scalmani, V. Barone, 
 G. A. Petersson, H. Nakatsuji, X. Li, M. Caricato, A. V. Marenich, 
 J. Bloino, B. G. Janesko, R. Gomperts, B. Mennucci, H. P. Hratchian, 
 J. V. Ortiz, A. F. Izmaylov, J. L. Sonnenberg, D. Williams-Young, 
 F. Ding, F. Lipparini, F. Egidi, J. Goings, B. Peng, A. Petrone, 
 T. Henderson, D. Ranasinghe, V. G. Zakrzewski, J. Gao, N. Rega, 
 G. Zheng, W. Liang, M. Hada, M. Ehara, K. Toyota, R. Fukuda, 
 J. Hasegawa, M. Ishida, T. Nakajima, Y. Honda, O. Kitao, H. Nakai, 
 T. Vreven, K. Throssell, J. A. Montgomery, Jr., J. E. Peralta, 
 F. Ogliaro, M. J. Bearpark, J. J. Heyd, E. N. Brothers, K. N. Kudin, 
 V. N. Staroverov, T. A. Keith, R. Kobayashi, J. Normand, 
 K. Raghavachari, A. P. Rendell, J. C. Burant, S. S. Iyengar, 
 J. Tomasi, M. Cossi, J. M. Millam, M. Klene, C. Adamo, R. Cammi, 
 J. W. Ochterski, R. L. Martin, K. Morokuma, O. Farkas, 
 J. B. Foresman, and D. J. Fox, Gaussian, Inc., Wallingford CT, 2016.
 
 ******************************************
 Gaussian 16:  ES64L-G16RevA.03 25-Dec-2016
                 7-May-2024 
 ******************************************
 %nprocshared=24
 Will use up to   24 processors via shared memory.
 %mem=20GB
 %oldchk=sp1_gs_m062x.chk
 %chk=sp1_s1_m062x.chk
 Copying data from "sp1_gs_m062x.chk" to current chk file "sp1_s1_m062x.chk"
 IOpt=  2 FromEx=T IUOpen= 4 IOptOp= 5 NList=   0 IFRang= 0 IUIn= 4 IUOut= 2.
 ----------------------------------------------------------------------
 #p M062X/def2TZVP SCRF(PCM,Solvent=chloroform) TD(Singlets,NStates=5, 
 root=1) integral=ultrafine opt guess=(read) geom=(allcheck) gfinput
 ----------------------------------------------------------------------
 1/18=20,19=15,26=6,29=7,38=1/1,3;
 2/9=110,12=2,40=1/2;
 3/5=44,7=101,11=9,14=-4,24=10,25=1,30=1,70=2201,71=1,72=7,74=-55,75=-5,116=-2/1,2,3,8;
 4/5=1/1;
 5/5=2,38=6,53=7/2;
 8/6=1,10=1,107=1,108=5/1;
 9/8=1,15=2,41=5,42=1,48=1,70=2/14;
 10/5=4,28=1/2;
 6/7=2,8=2,9=2,10=2/1;
 7/12=6,13=5,14=1/1,2,3,16;
 1/18=20,19=15,26=6/3(2);
 2/9=110/2;
 99//99;
 2/9=110/2;
 3/5=44,7=101,11=9,14=-2,25=1,30=1,70=2205,71=1,72=7,74=-55,75=-5/1,2,3,8;
 4/5=5,16=3,69=1/1;
 5/5=2,38=5,53=7/2;
 8/6=1,10=1,107=1,108=5/1;
 9/8=1,15=2,41=5,42=1,48=1,49=4,70=2/14;
 10/5=4,28=1/2;
 7/12=6,13=5,14=1/1,2,3,16;
 1/18=20,19=15,26=6/3(-8);
 2/9=110/2;
 6/7=2,8=2,9=2,10=2/1;
 99//99;
 Leave Link    1 at Tue May  7 19:45:31 2024, MaxMem=  2684354560 cpu:              15.2 elap:               0.7
 (Enter /s/ls4/groups/g0130/bin/g16/l101.exe)
 Structure from the checkpoint file:  "sp1_s1_m062x.chk"
 -----
 TITLE
 -----
 Charge =  0 Multiplicity = 1
 Redundant internal coordinates found in file.  (old form).
 C,0,-5.5422631734,1.3974108491,-1.4811239646
 C,0,-4.6245683603,0.8352603961,-0.5919573272
 C,0,-3.68134106,1.6737436778,-0.0221774765
 C,0,-3.6350040831,3.0323611493,-0.3366569312
 C,0,-4.5430497129,3.5776722088,-1.2158477156
 C,0,-5.5084072164,2.7479159222,-1.7943081583
 H,0,-4.6518078362,-0.2224767583,-0.3666265106
 H,0,-6.2254162481,3.1586800172,-2.4923769128
 H,0,-6.2876575682,0.7605336868,-1.9401767873
 H,0,-4.5078952957,4.6326496492,-1.4624244797
 N,0,-2.6776739153,1.3567866832,0.8993620605
 C,0,-1.6892094866,2.4148130136,0.853063974
 C,0,-2.5305927416,3.6787332402,0.4692673831
 C,0,-2.2295883915,-0.0150832397,1.0160493774
 H,0,-1.4548329711,-0.0780115935,1.7787471241
 H,0,-1.8339538038,-0.3986919435,0.0681793723
 C,0,-3.1541562314,4.3212672375,1.7163194678
 H,0,-3.6668785539,3.5808174541,2.3320988522
 H,0,-3.885534838,5.0640372293,1.3976043059
 H,0,-2.3985047191,4.8267374675,2.3199317152
 C,0,-1.7194156191,4.720095368,-0.2899128091
 H,0,-1.3686378652,4.3395419901,-1.2462581836
 H,0,-0.8559984127,5.0344128642,0.3006280545
 H,0,-2.3391021164,5.599616216,-0.470980676
 O,0,-0.8063758852,2.1729123585,-0.277411748
 C,0,0.3776369482,1.5615640738,-0.1362850531
 C,0,-0.9196357303,2.5088617209,2.1347882003
 C,0,0.3298624086,2.0681953048,2.2517623211
 C,0,1.0189033355,1.4919604076,1.1088414732
 H,0,-1.4543294556,2.8994261854,2.9884951057
 H,0,0.8509056918,2.1121643829,3.2003093784
 C,0,2.2651998106,0.8901072121,1.1904142976
 C,0,0.9784081138,1.043929929,-1.28291704
 C,0,2.2187203308,0.4465435724,-1.1942814826
 C,0,2.8437222441,0.3755112308,0.0441297086
 H,0,2.7835598393,0.8247331984,2.1368141874
 H,0,0.4581064241,1.1202854453,-2.2275046046
 H,0,2.7048451119,0.0356593054,-2.0664804769
 N,0,4.1557542375,-0.2593436834,0.1399836277
 O,0,4.6819337092,-0.3201308071,1.2319407436
 O,0,4.6542841021,-0.6945462773,-0.8769800217
 H,0,-3.0610910704,-0.6455082118,1.3281437229
 Recover connectivity data from disk.
 ITRead=  0  0  0  0  0  0  0  0  0  0  0  0  0  0  0  0  0  0  0  0
 ITRead=  0  0  0  0  0  0  0  0  0  0  0  0  0  0  0  0  0  0  0  0
 ITRead=  0  0
 MicOpt= -1 -1 -1 -1 -1 -1 -1 -1 -1 -1 -1 -1 -1 -1 -1 -1 -1 -1 -1 -1
 MicOpt= -1 -1 -1 -1 -1 -1 -1 -1 -1 -1 -1 -1 -1 -1 -1 -1 -1 -1 -1 -1
 MicOpt= -1 -1
 NAtoms=     42 NQM=       42 NQMF=       0 NMMI=      0 NMMIF=      0
                NMic=       0 NMicF=      0.
                    Isotopes and Nuclear Properties:
 (Nuclear quadrupole moments (NQMom) in fm**2, nuclear magnetic moments (NMagM)
  in nuclear magnetons)

  Atom         1           2           3           4           5           6           7           8           9          10
 IAtWgt=          12          12          12          12          12          12           1           1           1           1
 AtmWgt=  12.0000000  12.0000000  12.0000000  12.0000000  12.0000000  12.0000000   1.0078250   1.0078250   1.0078250   1.0078250
 NucSpn=           0           0           0           0           0           0           1           1           1           1
 AtZEff=   3.6000000   3.6000000   3.6000000   3.6000000   3.6000000   3.6000000   1.0000000   1.0000000   1.0000000   1.0000000
 NQMom=    0.0000000   0.0000000   0.0000000   0.0000000   0.0000000   0.0000000   0.0000000   0.0000000   0.0000000   0.0000000
 NMagM=    0.0000000   0.0000000   0.0000000   0.0000000   0.0000000   0.0000000   2.7928460   2.7928460   2.7928460   2.7928460
 AtZNuc=   6.0000000   6.0000000   6.0000000   6.0000000   6.0000000   6.0000000   1.0000000   1.0000000   1.0000000   1.0000000

  Atom        11          12          13          14          15          16          17          18          19          20
 IAtWgt=          14          12          12          12           1           1          12           1           1           1
 AtmWgt=  14.0030740  12.0000000  12.0000000  12.0000000   1.0078250   1.0078250  12.0000000   1.0078250   1.0078250   1.0078250
 NucSpn=           2           0           0           0           1           1           0           1           1           1
 AtZEff=   4.5500000   3.6000000   3.6000000   3.6000000   1.0000000   1.0000000   3.6000000   1.0000000   1.0000000   1.0000000
 NQMom=    2.0440000   0.0000000   0.0000000   0.0000000   0.0000000   0.0000000   0.0000000   0.0000000   0.0000000   0.0000000
 NMagM=    0.4037610   0.0000000   0.0000000   0.0000000   2.7928460   2.7928460   0.0000000   2.7928460   2.7928460   2.7928460
 AtZNuc=   7.0000000   6.0000000   6.0000000   6.0000000   1.0000000   1.0000000   6.0000000   1.0000000   1.0000000   1.0000000

  Atom        21          22          23          24          25          26          27          28          29          30
 IAtWgt=          12           1           1           1          16          12          12          12          12           1
 AtmWgt=  12.0000000   1.0078250   1.0078250   1.0078250  15.9949146  12.0000000  12.0000000  12.0000000  12.0000000   1.0078250
 NucSpn=           0           1           1           1           0           0           0           0           0           1
 AtZEff=   3.6000000   1.0000000   1.0000000   1.0000000   5.6000000   3.6000000   3.6000000   3.6000000   3.6000000   1.0000000
 NQMom=    0.0000000   0.0000000   0.0000000   0.0000000   0.0000000   0.0000000   0.0000000   0.0000000   0.0000000   0.0000000
 NMagM=    0.0000000   2.7928460   2.7928460   2.7928460   0.0000000   0.0000000   0.0000000   0.0000000   0.0000000   2.7928460
 AtZNuc=   6.0000000   1.0000000   1.0000000   1.0000000   8.0000000   6.0000000   6.0000000   6.0000000   6.0000000   1.0000000

  Atom        31          32          33          34          35          36          37          38          39          40
 IAtWgt=           1          12          12          12          12           1           1           1          14          16
 AtmWgt=   1.0078250  12.0000000  12.0000000  12.0000000  12.0000000   1.0078250   1.0078250   1.0078250  14.0030740  15.9949146
 NucSpn=           1           0           0           0           0           1           1           1           2           0
 AtZEff=   1.0000000   3.6000000   3.6000000   3.6000000   3.6000000   1.0000000   1.0000000   1.0000000   4.5500000   5.6000000
 NQMom=    0.0000000   0.0000000   0.0000000   0.0000000   0.0000000   0.0000000   0.0000000   0.0000000   2.0440000   0.0000000
 NMagM=    2.7928460   0.0000000   0.0000000   0.0000000   0.0000000   2.7928460   2.7928460   2.7928460   0.4037610   0.0000000
 AtZNuc=   1.0000000   6.0000000   6.0000000   6.0000000   6.0000000   1.0000000   1.0000000   1.0000000   7.0000000   8.0000000

  Atom        41          42
 IAtWgt=          16           1
 AtmWgt=  15.9949146   1.0078250
 NucSpn=           0           1
 AtZEff=   5.6000000   1.0000000
 NQMom=    0.0000000   0.0000000
 NMagM=    0.0000000   2.7928460
 AtZNuc=   8.0000000   1.0000000
 Leave Link  101 at Tue May  7 19:45:31 2024, MaxMem=  2684354560 cpu:               7.1 elap:               0.3
 (Enter /s/ls4/groups/g0130/bin/g16/l103.exe)

 GradGradGradGradGradGradGradGradGradGradGradGradGradGradGradGradGradGrad
 Berny optimization.
 Initialization pass.
                           ----------------------------
                           !    Initial Parameters    !
                           ! (Angstroms and Degrees)  !
 --------------------------                            --------------------------
 ! Name  Definition              Value          Derivative Info.                !
 --------------------------------------------------------------------------------
 ! R1    R(1,2)                  1.396          estimate D2E/DX2                !
 ! R2    R(1,6)                  1.3868         estimate D2E/DX2                !
 ! R3    R(1,9)                  1.0826         estimate D2E/DX2                !
 ! R4    R(2,3)                  1.3847         estimate D2E/DX2                !
 ! R5    R(2,7)                  1.0818         estimate D2E/DX2                !
 ! R6    R(3,4)                  1.3953         estimate D2E/DX2                !
 ! R7    R(3,11)                 1.3989         estimate D2E/DX2                !
 ! R8    R(4,5)                  1.3765         estimate D2E/DX2                !
 ! R9    R(4,13)                 1.5123         estimate D2E/DX2                !
 ! R10   R(5,6)                  1.3982         estimate D2E/DX2                !
 ! R11   R(5,10)                 1.084          estimate D2E/DX2                !
 ! R12   R(6,8)                  1.0817         estimate D2E/DX2                !
 ! R13   R(11,12)                1.4487         estimate D2E/DX2                !
 ! R14   R(11,14)                1.4479         estimate D2E/DX2                !
 ! R15   R(12,13)                1.5661         estimate D2E/DX2                !
 ! R16   R(12,25)                1.4546         estimate D2E/DX2                !
 ! R17   R(12,27)                1.498          estimate D2E/DX2                !
 ! R18   R(13,17)                1.5352         estimate D2E/DX2                !
 ! R19   R(13,21)                1.5228         estimate D2E/DX2                !
 ! R20   R(14,15)                1.089          estimate D2E/DX2                !
 ! R21   R(14,16)                1.0964         estimate D2E/DX2                !
 ! R22   R(14,42)                1.0891         estimate D2E/DX2                !
 ! R23   R(17,18)                1.091          estimate D2E/DX2                !
 ! R24   R(17,19)                1.09           estimate D2E/DX2                !
 ! R25   R(17,20)                1.0913         estimate D2E/DX2                !
 ! R26   R(21,22)                1.0874         estimate D2E/DX2                !
 ! R27   R(21,23)                1.0923         estimate D2E/DX2                !
 ! R28   R(21,24)                1.091          estimate D2E/DX2                !
 ! R29   R(25,26)                1.34           estimate D2E/DX2                !
 ! R30   R(26,29)                1.4023         estimate D2E/DX2                !
 ! R31   R(26,33)                1.3941         estimate D2E/DX2                !
 ! R32   R(27,28)                1.3301         estimate D2E/DX2                !
 ! R33   R(27,30)                1.0804         estimate D2E/DX2                !
 ! R34   R(28,29)                1.4536         estimate D2E/DX2                !
 ! R35   R(28,31)                1.0831         estimate D2E/DX2                !
 ! R36   R(29,32)                1.3864         estimate D2E/DX2                !
 ! R37   R(32,35)                1.3833         estimate D2E/DX2                !
 ! R38   R(32,36)                1.081          estimate D2E/DX2                !
 ! R39   R(33,34)                1.3795         estimate D2E/DX2                !
 ! R40   R(33,37)                1.0811         estimate D2E/DX2                !
 ! R41   R(34,35)                1.389          estimate D2E/DX2                !
 ! R42   R(34,38)                1.0798         estimate D2E/DX2                !
 ! R43   R(35,39)                1.4607         estimate D2E/DX2                !
 ! R44   R(39,40)                1.2136         estimate D2E/DX2                !
 ! R45   R(39,41)                1.2133         estimate D2E/DX2                !
 ! A1    A(2,1,6)              121.3295         estimate D2E/DX2                !
 ! A2    A(2,1,9)              119.0662         estimate D2E/DX2                !
 ! A3    A(6,1,9)              119.6017         estimate D2E/DX2                !
 ! A4    A(1,2,3)              117.7777         estimate D2E/DX2                !
 ! A5    A(1,2,7)              120.6533         estimate D2E/DX2                !
 ! A6    A(3,2,7)              121.5675         estimate D2E/DX2                !
 ! A7    A(2,3,4)              121.2982         estimate D2E/DX2                !
 ! A8    A(2,3,11)             128.5044         estimate D2E/DX2                !
 ! A9    A(4,3,11)             110.1973         estimate D2E/DX2                !
 ! A10   A(3,4,5)              120.5154         estimate D2E/DX2                !
 ! A11   A(3,4,13)             108.6819         estimate D2E/DX2                !
 ! A12   A(5,4,13)             130.7523         estimate D2E/DX2                !
 ! A13   A(4,5,6)              118.9852         estimate D2E/DX2                !
 ! A14   A(4,5,10)             120.6263         estimate D2E/DX2                !
 ! A15   A(6,5,10)             120.3872         estimate D2E/DX2                !
 ! A16   A(1,6,5)              120.0891         estimate D2E/DX2                !
 ! A17   A(1,6,8)              119.9578         estimate D2E/DX2                !
 ! A18   A(5,6,8)              119.9517         estimate D2E/DX2                !
 ! A19   A(3,11,12)            107.6383         estimate D2E/DX2                !
 ! A20   A(3,11,14)            119.3267         estimate D2E/DX2                !
 ! A21   A(12,11,14)           118.9082         estimate D2E/DX2                !
 ! A22   A(11,12,13)           103.3369         estimate D2E/DX2                !
 ! A23   A(11,12,25)           108.5119         estimate D2E/DX2                !
 ! A24   A(11,12,27)           111.6572         estimate D2E/DX2                !
 ! A25   A(13,12,25)           105.6535         estimate D2E/DX2                !
 ! A26   A(13,12,27)           115.7867         estimate D2E/DX2                !
 ! A27   A(25,12,27)           111.3224         estimate D2E/DX2                !
 ! A28   A(4,13,12)            100.2533         estimate D2E/DX2                !
 ! A29   A(4,13,17)            108.3699         estimate D2E/DX2                !
 ! A30   A(4,13,21)            114.559          estimate D2E/DX2                !
 ! A31   A(12,13,17)           110.9115         estimate D2E/DX2                !
 ! A32   A(12,13,21)           112.8236         estimate D2E/DX2                !
 ! A33   A(17,13,21)           109.5805         estimate D2E/DX2                !
 ! A34   A(11,14,15)           109.3516         estimate D2E/DX2                !
 ! A35   A(11,14,16)           111.9316         estimate D2E/DX2                !
 ! A36   A(11,14,42)           109.5882         estimate D2E/DX2                !
 ! A37   A(15,14,16)           109.1803         estimate D2E/DX2                !
 ! A38   A(15,14,42)           107.9994         estimate D2E/DX2                !
 ! A39   A(16,14,42)           108.7049         estimate D2E/DX2                !
 ! A40   A(13,17,18)           111.4263         estimate D2E/DX2                !
 ! A41   A(13,17,19)           108.676          estimate D2E/DX2                !
 ! A42   A(13,17,20)           111.218          estimate D2E/DX2                !
 ! A43   A(18,17,19)           108.1898         estimate D2E/DX2                !
 ! A44   A(18,17,20)           109.1223         estimate D2E/DX2                !
 ! A45   A(19,17,20)           108.1021         estimate D2E/DX2                !
 ! A46   A(13,21,22)           111.7759         estimate D2E/DX2                !
 ! A47   A(13,21,23)           110.3859         estimate D2E/DX2                !
 ! A48   A(13,21,24)           109.3576         estimate D2E/DX2                !
 ! A49   A(22,21,23)           108.736          estimate D2E/DX2                !
 ! A50   A(22,21,24)           108.6255         estimate D2E/DX2                !
 ! A51   A(23,21,24)           107.8623         estimate D2E/DX2                !
 ! A52   A(12,25,26)           122.0257         estimate D2E/DX2                !
 ! A53   A(25,26,29)           121.348          estimate D2E/DX2                !
 ! A54   A(25,26,33)           117.6159         estimate D2E/DX2                !
 ! A55   A(29,26,33)           120.9838         estimate D2E/DX2                !
 ! A56   A(12,27,28)           122.4843         estimate D2E/DX2                !
 ! A57   A(12,27,30)           116.3947         estimate D2E/DX2                !
 ! A58   A(28,27,30)           121.0107         estimate D2E/DX2                !
 ! A59   A(27,28,29)           120.4959         estimate D2E/DX2                !
 ! A60   A(27,28,31)           121.0295         estimate D2E/DX2                !
 ! A61   A(29,28,31)           118.4649         estimate D2E/DX2                !
 ! A62   A(26,29,28)           117.4959         estimate D2E/DX2                !
 ! A63   A(26,29,32)           119.0043         estimate D2E/DX2                !
 ! A64   A(28,29,32)           123.4993         estimate D2E/DX2                !
 ! A65   A(29,32,35)           119.2548         estimate D2E/DX2                !
 ! A66   A(29,32,36)           120.5842         estimate D2E/DX2                !
 ! A67   A(35,32,36)           120.1607         estimate D2E/DX2                !
 ! A68   A(26,33,34)           119.6946         estimate D2E/DX2                !
 ! A69   A(26,33,37)           119.0119         estimate D2E/DX2                !
 ! A70   A(34,33,37)           121.2935         estimate D2E/DX2                !
 ! A71   A(33,34,35)           118.946          estimate D2E/DX2                !
 ! A72   A(33,34,38)           121.176          estimate D2E/DX2                !
 ! A73   A(35,34,38)           119.878          estimate D2E/DX2                !
 ! A74   A(32,35,34)           122.1148         estimate D2E/DX2                !
 ! A75   A(32,35,39)           118.8791         estimate D2E/DX2                !
 ! A76   A(34,35,39)           119.0059         estimate D2E/DX2                !
 ! A77   A(35,39,40)           118.0497         estimate D2E/DX2                !
 ! A78   A(35,39,41)           118.0312         estimate D2E/DX2                !
 ! A79   A(40,39,41)           123.9191         estimate D2E/DX2                !
 ! D1    D(6,1,2,3)              0.4706         estimate D2E/DX2                !
 ! D2    D(6,1,2,7)           -179.0924         estimate D2E/DX2                !
 ! D3    D(9,1,2,3)            179.8839         estimate D2E/DX2                !
 ! D4    D(9,1,2,7)              0.3208         estimate D2E/DX2                !
 ! D5    D(2,1,6,5)             -0.0606         estimate D2E/DX2                !
 ! D6    D(2,1,6,8)            179.5102         estimate D2E/DX2                !
 ! D7    D(9,1,6,5)           -179.4707         estimate D2E/DX2                !
 ! D8    D(9,1,6,8)              0.1001         estimate D2E/DX2                !
 ! D9    D(1,2,3,4)             -0.8167         estimate D2E/DX2                !
 ! D10   D(1,2,3,11)           179.147          estimate D2E/DX2                !
 ! D11   D(7,2,3,4)            178.7421         estimate D2E/DX2                !
 ! D12   D(7,2,3,11)            -1.2942         estimate D2E/DX2                !
 ! D13   D(2,3,4,5)              0.7612         estimate D2E/DX2                !
 ! D14   D(2,3,4,13)           178.4468         estimate D2E/DX2                !
 ! D15   D(11,3,4,5)          -179.2086         estimate D2E/DX2                !
 ! D16   D(11,3,4,13)           -1.5229         estimate D2E/DX2                !
 ! D17   D(2,3,11,12)          161.0248         estimate D2E/DX2                !
 ! D18   D(2,3,11,14)           21.5215         estimate D2E/DX2                !
 ! D19   D(4,3,11,12)          -19.0083         estimate D2E/DX2                !
 ! D20   D(4,3,11,14)         -158.5116         estimate D2E/DX2                !
 ! D21   D(3,4,5,6)             -0.3242         estimate D2E/DX2                !
 ! D22   D(3,4,5,10)          -179.9201         estimate D2E/DX2                !
 ! D23   D(13,4,5,6)          -177.4296         estimate D2E/DX2                !
 ! D24   D(13,4,5,10)            2.9745         estimate D2E/DX2                !
 ! D25   D(3,4,13,12)           19.2196         estimate D2E/DX2                !
 ! D26   D(3,4,13,17)          -97.0288         estimate D2E/DX2                !
 ! D27   D(3,4,13,21)          140.2878         estimate D2E/DX2                !
 ! D28   D(5,4,13,12)         -163.4126         estimate D2E/DX2                !
 ! D29   D(5,4,13,17)           80.3391         estimate D2E/DX2                !
 ! D30   D(5,4,13,21)          -42.3444         estimate D2E/DX2                !
 ! D31   D(4,5,6,1)             -0.0178         estimate D2E/DX2                !
 ! D32   D(4,5,6,8)           -179.5885         estimate D2E/DX2                !
 ! D33   D(10,5,6,1)           179.5792         estimate D2E/DX2                !
 ! D34   D(10,5,6,8)             0.0084         estimate D2E/DX2                !
 ! D35   D(3,11,12,13)          30.4215         estimate D2E/DX2                !
 ! D36   D(3,11,12,25)         -81.4056         estimate D2E/DX2                !
 ! D37   D(3,11,12,27)         155.5332         estimate D2E/DX2                !
 ! D38   D(14,11,12,13)        170.1231         estimate D2E/DX2                !
 ! D39   D(14,11,12,25)         58.2961         estimate D2E/DX2                !
 ! D40   D(14,11,12,27)        -64.7651         estimate D2E/DX2                !
 ! D41   D(3,11,14,15)        -179.6957         estimate D2E/DX2                !
 ! D42   D(3,11,14,16)          59.1871         estimate D2E/DX2                !
 ! D43   D(3,11,14,42)         -61.492          estimate D2E/DX2                !
 ! D44   D(12,11,14,15)         45.2929         estimate D2E/DX2                !
 ! D45   D(12,11,14,16)        -75.8243         estimate D2E/DX2                !
 ! D46   D(12,11,14,42)        163.4966         estimate D2E/DX2                !
 ! D47   D(11,12,13,4)         -29.3629         estimate D2E/DX2                !
 ! D48   D(11,12,13,17)         84.9654         estimate D2E/DX2                !
 ! D49   D(11,12,13,21)       -151.6649         estimate D2E/DX2                !
 ! D50   D(25,12,13,4)          84.547          estimate D2E/DX2                !
 ! D51   D(25,12,13,17)       -161.1247         estimate D2E/DX2                !
 ! D52   D(25,12,13,21)        -37.7549         estimate D2E/DX2                !
 ! D53   D(27,12,13,4)        -151.7586         estimate D2E/DX2                !
 ! D54   D(27,12,13,17)        -37.4303         estimate D2E/DX2                !
 ! D55   D(27,12,13,21)         85.9395         estimate D2E/DX2                !
 ! D56   D(11,12,25,26)        -96.9989         estimate D2E/DX2                !
 ! D57   D(13,12,25,26)        152.7304         estimate D2E/DX2                !
 ! D58   D(27,12,25,26)         26.264          estimate D2E/DX2                !
 ! D59   D(11,12,27,28)        104.6289         estimate D2E/DX2                !
 ! D60   D(11,12,27,30)        -71.5856         estimate D2E/DX2                !
 ! D61   D(13,12,27,28)       -137.4997         estimate D2E/DX2                !
 ! D62   D(13,12,27,30)         46.2859         estimate D2E/DX2                !
 ! D63   D(25,12,27,28)        -16.8184         estimate D2E/DX2                !
 ! D64   D(25,12,27,30)        166.9672         estimate D2E/DX2                !
 ! D65   D(4,13,17,18)          59.558          estimate D2E/DX2                !
 ! D66   D(4,13,17,19)         -59.5611         estimate D2E/DX2                !
 ! D67   D(4,13,17,20)        -178.4466         estimate D2E/DX2                !
 ! D68   D(12,13,17,18)        -49.5692         estimate D2E/DX2                !
 ! D69   D(12,13,17,19)       -168.6882         estimate D2E/DX2                !
 ! D70   D(12,13,17,20)         72.4262         estimate D2E/DX2                !
 ! D71   D(21,13,17,18)       -174.784          estimate D2E/DX2                !
 ! D72   D(21,13,17,19)         66.097          estimate D2E/DX2                !
 ! D73   D(21,13,17,20)        -52.7886         estimate D2E/DX2                !
 ! D74   D(4,13,21,22)         -50.5333         estimate D2E/DX2                !
 ! D75   D(4,13,21,23)        -171.695          estimate D2E/DX2                !
 ! D76   D(4,13,21,24)          69.7899         estimate D2E/DX2                !
 ! D77   D(12,13,21,22)         63.3355         estimate D2E/DX2                !
 ! D78   D(12,13,21,23)        -57.8262         estimate D2E/DX2                !
 ! D79   D(12,13,21,24)       -176.3413         estimate D2E/DX2                !
 ! D80   D(17,13,21,22)       -172.5596         estimate D2E/DX2                !
 ! D81   D(17,13,21,23)         66.2787         estimate D2E/DX2                !
 ! D82   D(17,13,21,24)        -52.2364         estimate D2E/DX2                !
 ! D83   D(12,25,26,29)        -20.0547         estimate D2E/DX2                !
 ! D84   D(12,25,26,33)        162.5521         estimate D2E/DX2                !
 ! D85   D(25,26,29,28)          2.0563         estimate D2E/DX2                !
 ! D86   D(25,26,29,32)       -177.6915         estimate D2E/DX2                !
 ! D87   D(33,26,29,28)        179.362          estimate D2E/DX2                !
 ! D88   D(33,26,29,32)         -0.3858         estimate D2E/DX2                !
 ! D89   D(25,26,33,34)        177.7867         estimate D2E/DX2                !
 ! D90   D(25,26,33,37)         -2.2193         estimate D2E/DX2                !
 ! D91   D(29,26,33,34)          0.3835         estimate D2E/DX2                !
 ! D92   D(29,26,33,37)       -179.6225         estimate D2E/DX2                !
 ! D93   D(12,27,28,29)          1.298          estimate D2E/DX2                !
 ! D94   D(12,27,28,31)       -177.5508         estimate D2E/DX2                !
 ! D95   D(30,27,28,29)        177.3414         estimate D2E/DX2                !
 ! D96   D(30,27,28,31)         -1.5074         estimate D2E/DX2                !
 ! D97   D(27,28,29,26)          7.1307         estimate D2E/DX2                !
 ! D98   D(27,28,29,32)       -173.1338         estimate D2E/DX2                !
 ! D99   D(31,28,29,26)       -173.9915         estimate D2E/DX2                !
 ! D100  D(31,28,29,32)          5.7441         estimate D2E/DX2                !
 ! D101  D(26,29,32,35)          0.0444         estimate D2E/DX2                !
 ! D102  D(26,29,32,36)        179.8437         estimate D2E/DX2                !
 ! D103  D(28,29,32,35)       -179.6873         estimate D2E/DX2                !
 ! D104  D(28,29,32,36)          0.112          estimate D2E/DX2                !
 ! D105  D(29,32,35,34)          0.3043         estimate D2E/DX2                !
 ! D106  D(29,32,35,39)       -179.872          estimate D2E/DX2                !
 ! D107  D(36,32,35,34)       -179.4959         estimate D2E/DX2                !
 ! D108  D(36,32,35,39)          0.3278         estimate D2E/DX2                !
 ! D109  D(26,33,34,35)         -0.0381         estimate D2E/DX2                !
 ! D110  D(26,33,34,38)        179.8519         estimate D2E/DX2                !
 ! D111  D(37,33,34,35)        179.9681         estimate D2E/DX2                !
 ! D112  D(37,33,34,38)         -0.142          estimate D2E/DX2                !
 ! D113  D(33,34,35,32)         -0.3083         estimate D2E/DX2                !
 ! D114  D(33,34,35,39)        179.8682         estimate D2E/DX2                !
 ! D115  D(38,34,35,32)        179.8003         estimate D2E/DX2                !
 ! D116  D(38,34,35,39)         -0.0232         estimate D2E/DX2                !
 ! D117  D(32,35,39,40)          0.669          estimate D2E/DX2                !
 ! D118  D(32,35,39,41)       -179.3398         estimate D2E/DX2                !
 ! D119  D(34,35,39,40)       -179.5017         estimate D2E/DX2                !
 ! D120  D(34,35,39,41)          0.4895         estimate D2E/DX2                !
 --------------------------------------------------------------------------------
 Trust Radius=3.00D-01 FncErr=5.00D-06 GrdErr=5.00D-06 EigMax=2.50D+02 EigMin=1.00D-04
 Number of steps in this run=    252 maximum allowed number of steps=    252.
 GradGradGradGradGradGradGradGradGradGradGradGradGradGradGradGradGradGrad

 Leave Link  103 at Tue May  7 19:45:31 2024, MaxMem=  2684354560 cpu:               0.5 elap:               0.0
 (Enter /s/ls4/groups/g0130/bin/g16/l202.exe)
                          Input orientation:                          
 ---------------------------------------------------------------------
 Center     Atomic      Atomic             Coordinates (Angstroms)
 Number     Number       Type             X           Y           Z
 ---------------------------------------------------------------------
      1          6           0       -5.542263    1.397411   -1.481124
      2          6           0       -4.624568    0.835260   -0.591957
      3          6           0       -3.681341    1.673744   -0.022177
      4          6           0       -3.635004    3.032361   -0.336657
      5          6           0       -4.543050    3.577672   -1.215848
      6          6           0       -5.508407    2.747916   -1.794308
      7          1           0       -4.651808   -0.222477   -0.366627
      8          1           0       -6.225416    3.158680   -2.492377
      9          1           0       -6.287658    0.760534   -1.940177
     10          1           0       -4.507895    4.632650   -1.462424
     11          7           0       -2.677674    1.356787    0.899362
     12          6           0       -1.689209    2.414813    0.853064
     13          6           0       -2.530593    3.678733    0.469267
     14          6           0       -2.229588   -0.015083    1.016049
     15          1           0       -1.454833   -0.078012    1.778747
     16          1           0       -1.833954   -0.398692    0.068179
     17          6           0       -3.154156    4.321267    1.716319
     18          1           0       -3.666879    3.580817    2.332099
     19          1           0       -3.885535    5.064037    1.397604
     20          1           0       -2.398505    4.826737    2.319932
     21          6           0       -1.719416    4.720095   -0.289913
     22          1           0       -1.368638    4.339542   -1.246258
     23          1           0       -0.855998    5.034413    0.300628
     24          1           0       -2.339102    5.599616   -0.470981
     25          8           0       -0.806376    2.172912   -0.277412
     26          6           0        0.377637    1.561564   -0.136285
     27          6           0       -0.919636    2.508862    2.134788
     28          6           0        0.329862    2.068195    2.251762
     29          6           0        1.018903    1.491960    1.108841
     30          1           0       -1.454329    2.899426    2.988495
     31          1           0        0.850906    2.112164    3.200309
     32          6           0        2.265200    0.890107    1.190414
     33          6           0        0.978408    1.043930   -1.282917
     34          6           0        2.218720    0.446544   -1.194281
     35          6           0        2.843722    0.375511    0.044130
     36          1           0        2.783560    0.824733    2.136814
     37          1           0        0.458106    1.120285   -2.227505
     38          1           0        2.704845    0.035659   -2.066480
     39          7           0        4.155754   -0.259344    0.139984
     40          8           0        4.681934   -0.320131    1.231941
     41          8           0        4.654284   -0.694546   -0.876980
     42          1           0       -3.061091   -0.645508    1.328144
 ---------------------------------------------------------------------
                    Distance matrix (angstroms):
                    1          2          3          4          5
     1  C    0.000000
     2  C    1.395992   0.000000
     3  C    2.380738   1.384695   0.000000
     4  C    2.760526   2.423152   1.395309   0.000000
     5  C    2.412952   2.813664   2.406727   1.376549   0.000000
     6  C    1.386757   2.425916   2.762691   2.390668   1.398223
     7  H    2.158484   1.081815   2.157800   3.410096   3.895399
     8  H    2.142755   3.401851   3.844378   3.372435   2.153007
     9  H    1.082569   2.142229   3.362374   3.843052   3.391840
    10  H    3.396621   3.897626   3.393026   2.142479   1.083980
    11  N    3.724814   2.507274   1.398944   2.291675   3.589718
    12  C    4.618394   3.633099   2.298656   2.362820   3.711744
    13  C    4.251896   3.687312   2.363413   1.512295   2.626749
    14  C    4.382331   3.007441   2.457160   3.618277   4.820929
    15  H    5.432377   4.062207   3.356980   4.347700   5.645237
    16  H    4.402032   3.121850   2.777768   3.896126   4.979899
    17  C    4.947286   4.431986   3.210868   2.471276   3.328598
    18  H    4.777552   4.123755   3.029811   2.724716   3.654533
    19  H    4.947320   4.731499   3.681245   2.682934   3.077619
    20  H    6.007622   5.419072   4.131890   3.436012   4.319835
    21  C    5.203209   4.860359   3.633331   2.553451   3.183614
    22  H    5.111795   4.827958   3.735432   2.769930   3.264699
    23  H    6.193828   5.712417   4.402370   3.483851   4.244542
    24  H    5.379513   5.285554   4.173189   2.878924   3.082283
    25  O    4.947621   4.057936   2.929119   2.956907   4.100822
    26  C    6.072953   5.075156   4.062131   4.278397   5.426169
    27  C    5.973176   4.895162   3.602352   3.708816   5.049579
    28  C    6.990440   5.844079   4.627758   4.832152   6.168315
    29  C    7.054486   5.930661   4.837825   5.110886   6.378847
    30  H    6.240573   5.208727   3.940308   3.978649   5.260866
    31  H    7.956086   6.781783   5.578342   5.786215   7.123546
    32  C    8.267463   7.116794   6.119298   6.460155   7.704892
    33  C    6.533253   5.649275   4.868202   5.112029   6.075430
    34  C    7.824276   6.880734   6.139265   6.456629   7.451575
    35  C    8.584604   7.509417   6.653289   7.012685   8.148974
    36  H    9.095975   7.894724   6.868552   7.224240   8.514589
    37  H    6.052959   5.346947   4.722797   4.897437   5.663370
    38  H    8.379248   7.518902   6.902599   7.222617   8.111807
    39  N    9.971177   8.878511   8.073610   8.471034   9.603653
    40  O   10.716570   9.553665   8.688654   9.103360  10.309455
    41  O   10.426450   9.408435   8.707590   9.104619  10.146804
    42  H    4.268690   2.885121   2.754452   4.077703   5.148140
                    6          7          8          9         10
     6  C    0.000000
     7  H    3.405183   0.000000
     8  H    1.081725   4.292701   0.000000
     9  H    2.139672   2.473535   2.461687   0.000000
    10  H    2.159489   4.979331   2.486618   4.288249   0.000000
    11  N    4.147789   2.827367   5.228498   4.631466   4.433850
    12  C    4.658949   4.149690   5.685287   5.628904   4.269107
    13  C    3.854552   4.518596   4.763771   5.332621   2.924229
    14  C    5.126688   2.796775   6.192614   5.080234   5.738897
    15  H    6.097873   3.852810   7.174757   6.155465   6.482030
    16  H    5.183783   2.856643   6.204538   5.021232   5.899755
    17  C    4.510259   5.217972   5.338293   5.988958   3.469003
    18  H    4.594800   4.766367   5.477215   5.751071   4.026421
    19  H    4.264556   5.625559   4.923148   5.952404   2.958579
    20  H    5.560572   6.147319   6.370713   7.057482   4.335137
    21  C    4.528703   5.747506   5.252895   6.266605   3.026227
    22  H    4.468929   5.689022   5.151266   6.122710   3.160313
    23  H    5.591219   6.518304   6.336395   7.265684   4.075061
    24  H    4.464066   6.265482   5.014743   6.416101   2.573256
    25  O    4.974003   4.531357   5.936649   5.899496   4.599544
    26  C    6.229124   5.341458   7.190428   6.951390   5.921033
    27  C    6.045806   5.257984   7.069952   6.962589   5.506907
    28  C    7.135692   6.076198   8.165029   7.941908   6.616306
    29  C    7.253377   6.105184   8.259957   7.950933   6.857174
    30  H    6.271659   5.588111   7.271206   7.226875   5.669128
    31  H    8.111180   6.960850   9.142002   8.900033   7.537286
    32  C    8.531646   7.176853   9.528900   9.108719   8.180403
    33  C    6.726356   5.843176   7.604607   7.301234   6.558251
    34  C    8.084853   6.952464   8.963491   8.544789   7.927341
    35  C    8.875034   7.530557   9.819835   9.352423   8.627816
    36  H    9.375984   7.915084  10.394151   9.945500   8.978868
    37  H    6.199688   5.601527   6.992473   6.761458   6.130516
    38  H    8.653781   7.554898   9.470175   9.022555   8.574429
    39  N   10.304422   8.822197  11.241926  10.697293  10.077606
    40  O   11.064092   9.470147  12.039225  11.470052  10.781586
    41  O   10.769045   9.332023  11.654387  11.089352  10.614485
    42  H    5.220574   2.362537   6.251494   4.803083   6.143245
                   11         12         13         14         15
    11  N    0.000000
    12  C    1.448663   0.000000
    13  C    2.366020   1.566116   0.000000
    14  C    1.447903   2.494588   3.746179   0.000000
    15  H    2.080217   2.669456   4.121302   1.088997   0.000000
    16  H    2.117648   2.924518   4.155908   1.096421   1.781182
    17  C    3.111688   2.554574   1.535194   4.488779   4.716487
    18  H    2.824460   2.730986   2.184233   4.090023   4.311192
    19  H    3.930761   3.484072   2.148661   5.355857   5.700373
    20  H    3.759855   2.910701   2.181816   5.017158   5.023939
    21  C    3.693843   2.573254   1.522760   4.938393   5.231748
    22  H    3.900524   2.866095   2.174818   4.982171   5.354705
    23  H    4.147520   2.803878   2.161151   5.281665   5.355401
    24  H    4.471473   3.509762   2.147214   5.809312   6.170791
    25  O    2.356399   1.454609   2.407893   2.913057   3.116881
    26  C    3.232557   2.445138   3.647862   3.257501   3.116649
    27  C    2.438084   1.497967   2.595716   3.055790   2.665542
    28  C    3.373479   2.480555   3.735415   3.523893   2.831093
    29  C    3.704975   2.872447   4.217814   3.582246   3.005488
    30  H    2.870677   2.202291   2.848187   3.603600   3.213818
    31  H    4.279700   3.471792   4.620310   4.334238   3.483409
    32  C    4.973379   4.251575   5.594293   4.588343   3.888706
    33  C    4.269327   3.682108   4.724979   4.086318   4.068563
    34  C    5.402459   4.830903   5.980838   4.988598   4.754898
    35  C    5.672754   5.035931   6.322601   5.180316   4.657484
    36  H    5.624895   4.917523   6.258294   5.205099   4.348233
    37  H    4.434675   3.971986   4.769754   4.362729   4.598403
    38  H    6.285945   5.787212   6.863805   5.818350   5.665829
    39  N    7.062880   6.467086   7.766860   6.449787   5.847830
    40  O    7.555560   6.943697   8.282096   6.921618   6.165835
    41  O    7.817990   7.273313   8.518240   7.171676   6.689866
    42  H    2.083278   3.387230   4.440514   1.089144   1.762147
                   16         17         18         19         20
    16  H    0.000000
    17  C    5.170814   0.000000
    18  H    4.931677   1.091024   0.000000
    19  H    5.984795   1.090046   1.766644   0.000000
    20  H    5.717886   1.091264   1.777987   1.765859   0.000000
    21  C    5.132576   2.498502   3.459120   2.767324   2.698856
    22  H    4.939142   3.459086   4.319978   3.721515   3.743754
    23  H    5.525311   2.791825   3.760434   3.222162   2.549518
    24  H    6.043639   2.661348   3.700783   2.483930   2.896560
    25  O    2.790788   3.755325   4.119978   4.543732   4.040279
    26  C    2.962354   4.849914   5.150574   5.726672   4.939769
    27  C    3.682488   2.907406   2.955565   3.983581   2.755699
    28  C    3.941531   4.183470   4.274157   5.241586   3.880488
    29  C    3.577197   5.078231   5.274110   6.074260   4.926069
    30  H    4.421532   2.555284   2.406351   3.623153   2.247882
    31  H    4.829400   4.808626   4.829193   5.864910   4.324655
    32  C    4.441112   6.435748   6.613087   7.436139   6.206691
    33  C    3.437441   6.067491   6.409589   6.855975   6.220425
    34  C    4.328094   7.235529   7.543163   8.080907   7.270114
    35  C    4.741373   7.371550   7.608989   8.312465   7.243869
    36  H    5.205521   6.903553   7.017285   7.936936   6.550066
    37  H    3.582038   6.232854   6.622666   6.896507   6.525120
    38  H    5.034494   8.185591   8.515545   8.984296   8.260703
    39  N    5.991759   8.769357   8.985866   9.725344   8.577803
    40  O    6.619464   9.120389   9.280647  10.120189   8.820804
    41  O    6.563390   9.636147   9.890332  10.548153   9.510344
    42  H    1.776033   4.982790   4.385970   5.769180   5.600726
                   21         22         23         24         25
    21  C    0.000000
    22  H    1.087411   0.000000
    23  H    1.092256   1.771582   0.000000
    24  H    1.091033   1.769362   1.764775   0.000000
    25  O    2.705908   2.439075   2.919722   3.758859   0.000000
    26  C    3.794410   3.463911   3.711257   4.878377   1.339981
    27  C    3.377629   3.870978   3.121955   4.284586   2.438114
    28  C    4.206213   4.503339   3.743212   5.196887   2.774658
    29  C    4.458224   4.399496   4.088696   5.535781   2.391033
    30  H    3.759397   4.473747   3.484365   4.476809   3.407905
    31  H    5.058607   5.446058   4.456592   5.984717   3.852897
    32  C    5.721655   5.571423   5.263921   6.792592   3.637950
    33  C    4.666744   4.046113   4.668685   5.693803   2.339037
    34  C    5.881330   5.294079   5.721643   6.917447   3.601695
    35  C    6.309455   5.926434   5.954753   7.376875   4.081330
    36  H    6.429591   6.406232   5.859980   7.472735   4.531414
    37  H    4.631900   3.829289   4.841355   5.565443   2.551431
    38  H    6.683877   5.982427   6.578020   7.677541   4.483000
    39  N    7.713446   7.320541   7.291593   8.768343   5.541915
    40  O    8.288377   8.028913   7.759328   9.340144   6.214093
    41  O    8.383737   7.858371   8.035605   9.417471   6.196822
    42  H    5.762630   5.860262   6.178974   6.539090   3.950322
                   26         27         28         29         30
    26  C    0.000000
    27  C    2.781737   0.000000
    28  C    2.441665   1.330081   0.000000
    29  C    1.402286   2.417558   1.453648   0.000000
    30  H    3.861376   1.080395   2.101680   3.410416   0.000000
    31  H    3.414675   2.104168   1.083126   2.187947   2.445149
    32  C    2.402890   3.695319   2.501976   1.386411   4.594057
    33  C    1.394143   4.174842   3.736802   2.433697   5.254145
    34  C    2.398378   5.018480   4.251206   2.799434   6.083054
    35  C    2.742416   4.804675   3.749442   2.389568   5.789014
    36  H    3.390924   4.068163   2.753188   2.148472   4.794728
    37  H    2.138785   4.780786   4.580263   3.403504   5.833473
    38  H    3.386730   6.074887   5.330944   3.878902   7.145115
    39  N    4.203118   6.115700   4.951211   3.720966   7.040233
    40  O    4.892830   6.340025   5.068004   4.088596   7.148759
    41  O    4.891664   7.099377   6.010191   4.684047   8.073023
    42  H    4.340573   3.896993   4.440250   4.611206   4.231431
                   31         32         33         34         35
    31  H    0.000000
    32  C    2.744691   0.000000
    33  C    4.610499   2.792286   0.000000
    34  C    4.894654   2.426043   1.379529   0.000000
    35  C    4.116886   1.383281   2.384792   1.389005   0.000000
    36  H    2.554144   1.081038   3.873136   3.399745   2.141203
    37  H    5.531662   3.873079   1.081106   2.149707   3.377303
    38  H    5.957184   3.395693   2.147363   1.079757   2.142303
    39  N    5.090350   2.449253   3.717351   2.455736   1.460704
    40  O    4.946444   2.703147   4.679880   3.541435   2.296483
    41  O    6.242403   3.534540   4.086459   2.708272   2.295997
    42  H    5.139405   5.544949   5.097979   5.952446   6.128458
                   36         37         38         39         40
    36  H    0.000000
    37  H    4.954025   0.000000
    38  H    4.277443   2.500035   0.000000
    39  N    2.654331   4.602279   2.657188   0.000000
    40  O    2.394438   5.646528   3.862001   1.213643   0.000000
    41  O    3.858857   4.767121   2.397587   1.213321   2.142078
    42  H    6.080748   5.305225   6.725584   7.324186   7.750455
                   41         42
    41  O    0.000000
    42  H    8.024462   0.000000
 Stoichiometry    C19H18N2O3
 Framework group  C1[X(C19H18N2O3)]
 Deg. of freedom   120
 Full point group                 C1      NOp   1
 RotChk:  IX=2 Diff= 3.88D-15
 Largest Abelian subgroup         C1      NOp   1
 Largest concise Abelian subgroup C1      NOp   1
                         Standard orientation:                         
 ---------------------------------------------------------------------
 Center     Atomic      Atomic             Coordinates (Angstroms)
 Number     Number       Type             X           Y           Z
 ---------------------------------------------------------------------
      1          6           0        4.487905   -2.230029   -0.359018
      2          6           0        3.373818   -1.828741   -1.098323
      3          6           0        2.711902   -0.680852   -0.696328
      4          6           0        3.130509    0.043961    0.420050
      5          6           0        4.229306   -0.360206    1.144054
      6          6           0        4.915571   -1.512152    0.747711
      7          1           0        3.041045   -2.405122   -1.951183
      8          1           0        5.777088   -1.847658    1.309274
      9          1           0        5.019962   -3.125562   -0.653791
     10          1           0        4.555316    0.200799    2.012388
     11          7           0        1.593449   -0.072259   -1.275743
     12          6           0        1.006008    0.803128   -0.282145
     13          6           0        2.236758    1.254019    0.574985
     14          6           0        0.718954   -0.855817   -2.122926
     15          1           0       -0.089578   -0.224682   -2.488793
     16          1           0        0.292999   -1.713841   -1.589544
     17          6           0        2.938895    2.459362   -0.066086
     18          1           0        3.137284    2.288138   -1.125169
     19          1           0        3.892691    2.616295    0.437746
     20          1           0        2.343873    3.367497    0.043898
     21          6           0        1.864727    1.585998    2.013797
     22          1           0        1.482715    0.716052    2.542686
     23          1           0        1.107291    2.372555    2.039141
     24          1           0        2.746970    1.953912    2.539765
     25          8           0        0.179877    0.002581    0.608091
     26          6           0       -1.145182   -0.106679    0.441271
     27          6           0        0.214080    1.905598   -0.915639
     28          6           0       -1.115833    1.908918   -0.936493
     29          6           0       -1.866156    0.834131   -0.308049
     30          1           0        0.780546    2.677318   -1.416456
     31          1           0       -1.664439    2.698391   -1.435417
     32          6           0       -3.242439    0.700878   -0.409168
     33          6           0       -1.793026   -1.159563    1.085765
     34          6           0       -3.162751   -1.285860    0.980870
     35          6           0       -3.868336   -0.353676    0.230858
     36          1           0       -3.823659    1.412950   -0.978185
     37          1           0       -1.206563   -1.863139    1.660075
     38          1           0       -3.688568   -2.093317    1.468111
     39          7           0       -5.318366   -0.487826    0.116518
     40          8           0       -5.916413    0.330901   -0.550533
     41          8           0       -5.852869   -1.411346    0.694070
     42          1           0        1.276427   -1.221595   -2.984125
 ---------------------------------------------------------------------
 Rotational constants (GHZ):           0.6053456           0.1309849           0.1237248
 Leave Link  202 at Tue May  7 19:45:32 2024, MaxMem=  2684354560 cpu:               0.4 elap:               0.0
 (Enter /s/ls4/groups/g0130/bin/g16/l301.exe)
 Standard basis: def2TZVP (5D, 7F)
 Ernie: Thresh=  0.10000D-02 Tol=  0.10000D-05 Strict=F.
 AO basis set in the form of general basis input (Overlap normalization):
      1 0
 S   6 1.00       0.000000000000
      0.1357534968D+05  0.6064550360D-03
      0.2035233368D+04  0.4697908888D-02
      0.4632256236D+03  0.2433247765D-01
      0.1312001960D+03  0.9739996831D-01
      0.4285301589D+02  0.3019558425D+00
      0.1558418577D+02  0.6623360914D+00
 S   2 1.00       0.000000000000
      0.6206713851D+01  0.6559530854D+00
      0.2576489653D+01  0.3758563329D+00
 S   1 1.00       0.000000000000
      0.5769633942D+00  0.1000000000D+01
 S   1 1.00       0.000000000000
      0.2297283136D+00  0.1000000000D+01
 S   1 1.00       0.000000000000
      0.9516444003D-01  0.1000000000D+01
 P   4 1.00       0.000000000000
      0.3469723224D+02  0.1132722000D-01
      0.7958262283D+01  0.7616965920D-01
      0.2378082688D+01  0.3019225220D+00
      0.8143320818D+00  0.7278502735D+00
 P   1 1.00       0.000000000000
      0.2888754725D+00  0.1000000000D+01
 P   1 1.00       0.000000000000
      0.1005682367D+00  0.1000000000D+01
 D   1 1.00       0.000000000000
      0.1097000000D+01  0.1000000000D+01
 D   1 1.00       0.000000000000
      0.3180000000D+00  0.1000000000D+01
 F   1 1.00       0.000000000000
      0.7610000000D+00  0.1000000000D+01
 ****
      2 0
 S   6 1.00       0.000000000000
      0.1357534968D+05  0.6064550360D-03
      0.2035233368D+04  0.4697908888D-02
      0.4632256236D+03  0.2433247765D-01
      0.1312001960D+03  0.9739996831D-01
      0.4285301589D+02  0.3019558425D+00
      0.1558418577D+02  0.6623360914D+00
 S   2 1.00       0.000000000000
      0.6206713851D+01  0.6559530854D+00
      0.2576489653D+01  0.3758563329D+00
 S   1 1.00       0.000000000000
      0.5769633942D+00  0.1000000000D+01
 S   1 1.00       0.000000000000
      0.2297283136D+00  0.1000000000D+01
 S   1 1.00       0.000000000000
      0.9516444003D-01  0.1000000000D+01
 P   4 1.00       0.000000000000
      0.3469723224D+02  0.1132722000D-01
      0.7958262283D+01  0.7616965920D-01
      0.2378082688D+01  0.3019225220D+00
      0.8143320818D+00  0.7278502735D+00
 P   1 1.00       0.000000000000
      0.2888754725D+00  0.1000000000D+01
 P   1 1.00       0.000000000000
      0.1005682367D+00  0.1000000000D+01
 D   1 1.00       0.000000000000
      0.1097000000D+01  0.1000000000D+01
 D   1 1.00       0.000000000000
      0.3180000000D+00  0.1000000000D+01
 F   1 1.00       0.000000000000
      0.7610000000D+00  0.1000000000D+01
 ****
      3 0
 S   6 1.00       0.000000000000
      0.1357534968D+05  0.6064550360D-03
      0.2035233368D+04  0.4697908888D-02
      0.4632256236D+03  0.2433247765D-01
      0.1312001960D+03  0.9739996831D-01
      0.4285301589D+02  0.3019558425D+00
      0.1558418577D+02  0.6623360914D+00
 S   2 1.00       0.000000000000
      0.6206713851D+01  0.6559530854D+00
      0.2576489653D+01  0.3758563329D+00
 S   1 1.00       0.000000000000
      0.5769633942D+00  0.1000000000D+01
 S   1 1.00       0.000000000000
      0.2297283136D+00  0.1000000000D+01
 S   1 1.00       0.000000000000
      0.9516444003D-01  0.1000000000D+01
 P   4 1.00       0.000000000000
      0.3469723224D+02  0.1132722000D-01
      0.7958262283D+01  0.7616965920D-01
      0.2378082688D+01  0.3019225220D+00
      0.8143320818D+00  0.7278502735D+00
 P   1 1.00       0.000000000000
      0.2888754725D+00  0.1000000000D+01
 P   1 1.00       0.000000000000
      0.1005682367D+00  0.1000000000D+01
 D   1 1.00       0.000000000000
      0.1097000000D+01  0.1000000000D+01
 D   1 1.00       0.000000000000
      0.3180000000D+00  0.1000000000D+01
 F   1 1.00       0.000000000000
      0.7610000000D+00  0.1000000000D+01
 ****
      4 0
 S   6 1.00       0.000000000000
      0.1357534968D+05  0.6064550360D-03
      0.2035233368D+04  0.4697908888D-02
      0.4632256236D+03  0.2433247765D-01
      0.1312001960D+03  0.9739996831D-01
      0.4285301589D+02  0.3019558425D+00
      0.1558418577D+02  0.6623360914D+00
 S   2 1.00       0.000000000000
      0.6206713851D+01  0.6559530854D+00
      0.2576489653D+01  0.3758563329D+00
 S   1 1.00       0.000000000000
      0.5769633942D+00  0.1000000000D+01
 S   1 1.00       0.000000000000
      0.2297283136D+00  0.1000000000D+01
 S   1 1.00       0.000000000000
      0.9516444003D-01  0.1000000000D+01
 P   4 1.00       0.000000000000
      0.3469723224D+02  0.1132722000D-01
      0.7958262283D+01  0.7616965920D-01
      0.2378082688D+01  0.3019225220D+00
      0.8143320818D+00  0.7278502735D+00
 P   1 1.00       0.000000000000
      0.2888754725D+00  0.1000000000D+01
 P   1 1.00       0.000000000000
      0.1005682367D+00  0.1000000000D+01
 D   1 1.00       0.000000000000
      0.1097000000D+01  0.1000000000D+01
 D   1 1.00       0.000000000000
      0.3180000000D+00  0.1000000000D+01
 F   1 1.00       0.000000000000
      0.7610000000D+00  0.1000000000D+01
 ****
      5 0
 S   6 1.00       0.000000000000
      0.1357534968D+05  0.6064550360D-03
      0.2035233368D+04  0.4697908888D-02
      0.4632256236D+03  0.2433247765D-01
      0.1312001960D+03  0.9739996831D-01
      0.4285301589D+02  0.3019558425D+00
      0.1558418577D+02  0.6623360914D+00
 S   2 1.00       0.000000000000
      0.6206713851D+01  0.6559530854D+00
      0.2576489653D+01  0.3758563329D+00
 S   1 1.00       0.000000000000
      0.5769633942D+00  0.1000000000D+01
 S   1 1.00       0.000000000000
      0.2297283136D+00  0.1000000000D+01
 S   1 1.00       0.000000000000
      0.9516444003D-01  0.1000000000D+01
 P   4 1.00       0.000000000000
      0.3469723224D+02  0.1132722000D-01
      0.7958262283D+01  0.7616965920D-01
      0.2378082688D+01  0.3019225220D+00
      0.8143320818D+00  0.7278502735D+00
 P   1 1.00       0.000000000000
      0.2888754725D+00  0.1000000000D+01
 P   1 1.00       0.000000000000
      0.1005682367D+00  0.1000000000D+01
 D   1 1.00       0.000000000000
      0.1097000000D+01  0.1000000000D+01
 D   1 1.00       0.000000000000
      0.3180000000D+00  0.1000000000D+01
 F   1 1.00       0.000000000000
      0.7610000000D+00  0.1000000000D+01
 ****
      6 0
 S   6 1.00       0.000000000000
      0.1357534968D+05  0.6064550360D-03
      0.2035233368D+04  0.4697908888D-02
      0.4632256236D+03  0.2433247765D-01
      0.1312001960D+03  0.9739996831D-01
      0.4285301589D+02  0.3019558425D+00
      0.1558418577D+02  0.6623360914D+00
 S   2 1.00       0.000000000000
      0.6206713851D+01  0.6559530854D+00
      0.2576489653D+01  0.3758563329D+00
 S   1 1.00       0.000000000000
      0.5769633942D+00  0.1000000000D+01
 S   1 1.00       0.000000000000
      0.2297283136D+00  0.1000000000D+01
 S   1 1.00       0.000000000000
      0.9516444003D-01  0.1000000000D+01
 P   4 1.00       0.000000000000
      0.3469723224D+02  0.1132722000D-01
      0.7958262283D+01  0.7616965920D-01
      0.2378082688D+01  0.3019225220D+00
      0.8143320818D+00  0.7278502735D+00
 P   1 1.00       0.000000000000
      0.2888754725D+00  0.1000000000D+01
 P   1 1.00       0.000000000000
      0.1005682367D+00  0.1000000000D+01
 D   1 1.00       0.000000000000
      0.1097000000D+01  0.1000000000D+01
 D   1 1.00       0.000000000000
      0.3180000000D+00  0.1000000000D+01
 F   1 1.00       0.000000000000
      0.7610000000D+00  0.1000000000D+01
 ****
      7 0
 S   3 1.00       0.000000000000
      0.3406134100D+02  0.2543930721D-01
      0.5123574600D+01  0.1900859489D+00
      0.1164662600D+01  0.8524411301D+00
 S   1 1.00       0.000000000000
      0.3272304100D+00  0.1000000000D+01
 S   1 1.00       0.000000000000
      0.1030724100D+00  0.1000000000D+01
 P   1 1.00       0.000000000000
      0.8000000000D+00  0.1000000000D+01
 ****
      8 0
 S   3 1.00       0.000000000000
      0.3406134100D+02  0.2543930721D-01
      0.5123574600D+01  0.1900859489D+00
      0.1164662600D+01  0.8524411301D+00
 S   1 1.00       0.000000000000
      0.3272304100D+00  0.1000000000D+01
 S   1 1.00       0.000000000000
      0.1030724100D+00  0.1000000000D+01
 P   1 1.00       0.000000000000
      0.8000000000D+00  0.1000000000D+01
 ****
      9 0
 S   3 1.00       0.000000000000
      0.3406134100D+02  0.2543930721D-01
      0.5123574600D+01  0.1900859489D+00
      0.1164662600D+01  0.8524411301D+00
 S   1 1.00       0.000000000000
      0.3272304100D+00  0.1000000000D+01
 S   1 1.00       0.000000000000
      0.1030724100D+00  0.1000000000D+01
 P   1 1.00       0.000000000000
      0.8000000000D+00  0.1000000000D+01
 ****
     10 0
 S   3 1.00       0.000000000000
      0.3406134100D+02  0.2543930721D-01
      0.5123574600D+01  0.1900859489D+00
      0.1164662600D+01  0.8524411301D+00
 S   1 1.00       0.000000000000
      0.3272304100D+00  0.1000000000D+01
 S   1 1.00       0.000000000000
      0.1030724100D+00  0.1000000000D+01
 P   1 1.00       0.000000000000
      0.8000000000D+00  0.1000000000D+01
 ****
     11 0
 S   6 1.00       0.000000000000
      0.1973080065D+05  0.5862640263D-03
      0.2957895874D+04  0.4542882059D-02
      0.6732213360D+03  0.2355841345D-01
      0.1906824949D+03  0.9470919329D-01
      0.6229544190D+02  0.2971978491D+00
      0.2265416118D+02  0.6691624690D+00
 S   2 1.00       0.000000000000
      0.8979147743D+01  0.6459668363D+00
      0.3686300237D+01  0.3870057439D+00
 S   1 1.00       0.000000000000
      0.8466007680D+00  0.1000000000D+01
 S   1 1.00       0.000000000000
      0.3364713377D+00  0.1000000000D+01
 S   1 1.00       0.000000000000
      0.1364765367D+00  0.1000000000D+01
 P   4 1.00       0.000000000000
      0.4920038051D+02  0.1144882510D-01
      0.1134679054D+02  0.7842233797D-01
      0.3427397241D+01  0.3081809474D+00
      0.1178552513D+01  0.7202719637D+00
 P   1 1.00       0.000000000000
      0.4164220497D+00  0.1000000000D+01
 P   1 1.00       0.000000000000
      0.1426082601D+00  0.1000000000D+01
 D   1 1.00       0.000000000000
      0.1654000000D+01  0.1000000000D+01
 D   1 1.00       0.000000000000
      0.4690000000D+00  0.1000000000D+01
 F   1 1.00       0.000000000000
      0.1093000000D+01  0.1000000000D+01
 ****
     12 0
 S   6 1.00       0.000000000000
      0.1357534968D+05  0.6064550360D-03
      0.2035233368D+04  0.4697908888D-02
      0.4632256236D+03  0.2433247765D-01
      0.1312001960D+03  0.9739996831D-01
      0.4285301589D+02  0.3019558425D+00
      0.1558418577D+02  0.6623360914D+00
 S   2 1.00       0.000000000000
      0.6206713851D+01  0.6559530854D+00
      0.2576489653D+01  0.3758563329D+00
 S   1 1.00       0.000000000000
      0.5769633942D+00  0.1000000000D+01
 S   1 1.00       0.000000000000
      0.2297283136D+00  0.1000000000D+01
 S   1 1.00       0.000000000000
      0.9516444003D-01  0.1000000000D+01
 P   4 1.00       0.000000000000
      0.3469723224D+02  0.1132722000D-01
      0.7958262283D+01  0.7616965920D-01
      0.2378082688D+01  0.3019225220D+00
      0.8143320818D+00  0.7278502735D+00
 P   1 1.00       0.000000000000
      0.2888754725D+00  0.1000000000D+01
 P   1 1.00       0.000000000000
      0.1005682367D+00  0.1000000000D+01
 D   1 1.00       0.000000000000
      0.1097000000D+01  0.1000000000D+01
 D   1 1.00       0.000000000000
      0.3180000000D+00  0.1000000000D+01
 F   1 1.00       0.000000000000
      0.7610000000D+00  0.1000000000D+01
 ****
     13 0
 S   6 1.00       0.000000000000
      0.1357534968D+05  0.6064550360D-03
      0.2035233368D+04  0.4697908888D-02
      0.4632256236D+03  0.2433247765D-01
      0.1312001960D+03  0.9739996831D-01
      0.4285301589D+02  0.3019558425D+00
      0.1558418577D+02  0.6623360914D+00
 S   2 1.00       0.000000000000
      0.6206713851D+01  0.6559530854D+00
      0.2576489653D+01  0.3758563329D+00
 S   1 1.00       0.000000000000
      0.5769633942D+00  0.1000000000D+01
 S   1 1.00       0.000000000000
      0.2297283136D+00  0.1000000000D+01
 S   1 1.00       0.000000000000
      0.9516444003D-01  0.1000000000D+01
 P   4 1.00       0.000000000000
      0.3469723224D+02  0.1132722000D-01
      0.7958262283D+01  0.7616965920D-01
      0.2378082688D+01  0.3019225220D+00
      0.8143320818D+00  0.7278502735D+00
 P   1 1.00       0.000000000000
      0.2888754725D+00  0.1000000000D+01
 P   1 1.00       0.000000000000
      0.1005682367D+00  0.1000000000D+01
 D   1 1.00       0.000000000000
      0.1097000000D+01  0.1000000000D+01
 D   1 1.00       0.000000000000
      0.3180000000D+00  0.1000000000D+01
 F   1 1.00       0.000000000000
      0.7610000000D+00  0.1000000000D+01
 ****
     14 0
 S   6 1.00       0.000000000000
      0.1357534968D+05  0.6064550360D-03
      0.2035233368D+04  0.4697908888D-02
      0.4632256236D+03  0.2433247765D-01
      0.1312001960D+03  0.9739996831D-01
      0.4285301589D+02  0.3019558425D+00
      0.1558418577D+02  0.6623360914D+00
 S   2 1.00       0.000000000000
      0.6206713851D+01  0.6559530854D+00
      0.2576489653D+01  0.3758563329D+00
 S   1 1.00       0.000000000000
      0.5769633942D+00  0.1000000000D+01
 S   1 1.00       0.000000000000
      0.2297283136D+00  0.1000000000D+01
 S   1 1.00       0.000000000000
      0.9516444003D-01  0.1000000000D+01
 P   4 1.00       0.000000000000
      0.3469723224D+02  0.1132722000D-01
      0.7958262283D+01  0.7616965920D-01
      0.2378082688D+01  0.3019225220D+00
      0.8143320818D+00  0.7278502735D+00
 P   1 1.00       0.000000000000
      0.2888754725D+00  0.1000000000D+01
 P   1 1.00       0.000000000000
      0.1005682367D+00  0.1000000000D+01
 D   1 1.00       0.000000000000
      0.1097000000D+01  0.1000000000D+01
 D   1 1.00       0.000000000000
      0.3180000000D+00  0.1000000000D+01
 F   1 1.00       0.000000000000
      0.7610000000D+00  0.1000000000D+01
 ****
     15 0
 S   3 1.00       0.000000000000
      0.3406134100D+02  0.2543930721D-01
      0.5123574600D+01  0.1900859489D+00
      0.1164662600D+01  0.8524411301D+00
 S   1 1.00       0.000000000000
      0.3272304100D+00  0.1000000000D+01
 S   1 1.00       0.000000000000
      0.1030724100D+00  0.1000000000D+01
 P   1 1.00       0.000000000000
      0.8000000000D+00  0.1000000000D+01
 ****
     16 0
 S   3 1.00       0.000000000000
      0.3406134100D+02  0.2543930721D-01
      0.5123574600D+01  0.1900859489D+00
      0.1164662600D+01  0.8524411301D+00
 S   1 1.00       0.000000000000
      0.3272304100D+00  0.1000000000D+01
 S   1 1.00       0.000000000000
      0.1030724100D+00  0.1000000000D+01
 P   1 1.00       0.000000000000
      0.8000000000D+00  0.1000000000D+01
 ****
     17 0
 S   6 1.00       0.000000000000
      0.1357534968D+05  0.6064550360D-03
      0.2035233368D+04  0.4697908888D-02
      0.4632256236D+03  0.2433247765D-01
      0.1312001960D+03  0.9739996831D-01
      0.4285301589D+02  0.3019558425D+00
      0.1558418577D+02  0.6623360914D+00
 S   2 1.00       0.000000000000
      0.6206713851D+01  0.6559530854D+00
      0.2576489653D+01  0.3758563329D+00
 S   1 1.00       0.000000000000
      0.5769633942D+00  0.1000000000D+01
 S   1 1.00       0.000000000000
      0.2297283136D+00  0.1000000000D+01
 S   1 1.00       0.000000000000
      0.9516444003D-01  0.1000000000D+01
 P   4 1.00       0.000000000000
      0.3469723224D+02  0.1132722000D-01
      0.7958262283D+01  0.7616965920D-01
      0.2378082688D+01  0.3019225220D+00
      0.8143320818D+00  0.7278502735D+00
 P   1 1.00       0.000000000000
      0.2888754725D+00  0.1000000000D+01
 P   1 1.00       0.000000000000
      0.1005682367D+00  0.1000000000D+01
 D   1 1.00       0.000000000000
      0.1097000000D+01  0.1000000000D+01
 D   1 1.00       0.000000000000
      0.3180000000D+00  0.1000000000D+01
 F   1 1.00       0.000000000000
      0.7610000000D+00  0.1000000000D+01
 ****
     18 0
 S   3 1.00       0.000000000000
      0.3406134100D+02  0.2543930721D-01
      0.5123574600D+01  0.1900859489D+00
      0.1164662600D+01  0.8524411301D+00
 S   1 1.00       0.000000000000
      0.3272304100D+00  0.1000000000D+01
 S   1 1.00       0.000000000000
      0.1030724100D+00  0.1000000000D+01
 P   1 1.00       0.000000000000
      0.8000000000D+00  0.1000000000D+01
 ****
     19 0
 S   3 1.00       0.000000000000
      0.3406134100D+02  0.2543930721D-01
      0.5123574600D+01  0.1900859489D+00
      0.1164662600D+01  0.8524411301D+00
 S   1 1.00       0.000000000000
      0.3272304100D+00  0.1000000000D+01
 S   1 1.00       0.000000000000
      0.1030724100D+00  0.1000000000D+01
 P   1 1.00       0.000000000000
      0.8000000000D+00  0.1000000000D+01
 ****
     20 0
 S   3 1.00       0.000000000000
      0.3406134100D+02  0.2543930721D-01
      0.5123574600D+01  0.1900859489D+00
      0.1164662600D+01  0.8524411301D+00
 S   1 1.00       0.000000000000
      0.3272304100D+00  0.1000000000D+01
 S   1 1.00       0.000000000000
      0.1030724100D+00  0.1000000000D+01
 P   1 1.00       0.000000000000
      0.8000000000D+00  0.1000000000D+01
 ****
     21 0
 S   6 1.00       0.000000000000
      0.1357534968D+05  0.6064550360D-03
      0.2035233368D+04  0.4697908888D-02
      0.4632256236D+03  0.2433247765D-01
      0.1312001960D+03  0.9739996831D-01
      0.4285301589D+02  0.3019558425D+00
      0.1558418577D+02  0.6623360914D+00
 S   2 1.00       0.000000000000
      0.6206713851D+01  0.6559530854D+00
      0.2576489653D+01  0.3758563329D+00
 S   1 1.00       0.000000000000
      0.5769633942D+00  0.1000000000D+01
 S   1 1.00       0.000000000000
      0.2297283136D+00  0.1000000000D+01
 S   1 1.00       0.000000000000
      0.9516444003D-01  0.1000000000D+01
 P   4 1.00       0.000000000000
      0.3469723224D+02  0.1132722000D-01
      0.7958262283D+01  0.7616965920D-01
      0.2378082688D+01  0.3019225220D+00
      0.8143320818D+00  0.7278502735D+00
 P   1 1.00       0.000000000000
      0.2888754725D+00  0.1000000000D+01
 P   1 1.00       0.000000000000
      0.1005682367D+00  0.1000000000D+01
 D   1 1.00       0.000000000000
      0.1097000000D+01  0.1000000000D+01
 D   1 1.00       0.000000000000
      0.3180000000D+00  0.1000000000D+01
 F   1 1.00       0.000000000000
      0.7610000000D+00  0.1000000000D+01
 ****
     22 0
 S   3 1.00       0.000000000000
      0.3406134100D+02  0.2543930721D-01
      0.5123574600D+01  0.1900859489D+00
      0.1164662600D+01  0.8524411301D+00
 S   1 1.00       0.000000000000
      0.3272304100D+00  0.1000000000D+01
 S   1 1.00       0.000000000000
      0.1030724100D+00  0.1000000000D+01
 P   1 1.00       0.000000000000
      0.8000000000D+00  0.1000000000D+01
 ****
     23 0
 S   3 1.00       0.000000000000
      0.3406134100D+02  0.2543930721D-01
      0.5123574600D+01  0.1900859489D+00
      0.1164662600D+01  0.8524411301D+00
 S   1 1.00       0.000000000000
      0.3272304100D+00  0.1000000000D+01
 S   1 1.00       0.000000000000
      0.1030724100D+00  0.1000000000D+01
 P   1 1.00       0.000000000000
      0.8000000000D+00  0.1000000000D+01
 ****
     24 0
 S   3 1.00       0.000000000000
      0.3406134100D+02  0.2543930721D-01
      0.5123574600D+01  0.1900859489D+00
      0.1164662600D+01  0.8524411301D+00
 S   1 1.00       0.000000000000
      0.3272304100D+00  0.1000000000D+01
 S   1 1.00       0.000000000000
      0.1030724100D+00  0.1000000000D+01
 P   1 1.00       0.000000000000
      0.8000000000D+00  0.1000000000D+01
 ****
     25 0
 S   6 1.00       0.000000000000
      0.2703238263D+05  0.5722733521D-03
      0.4052387139D+04  0.4435323349D-02
      0.9223272271D+03  0.2302010771D-01
      0.2612407099D+03  0.9282249067D-01
      0.8535464135D+02  0.2937850001D+00
      0.3103503524D+02  0.6740160450D+00
 S   2 1.00       0.000000000000
      0.1226086073D+02  0.6383993703D+00
      0.4998707601D+01  0.3953458713D+00
 S   1 1.00       0.000000000000
      0.1170310816D+01  0.1000000000D+01
 S   1 1.00       0.000000000000
      0.4647474099D+00  0.1000000000D+01
 S   1 1.00       0.000000000000
      0.1850453636D+00  0.1000000000D+01
 P   4 1.00       0.000000000000
      0.6327495480D+02  0.1201833222D-01
      0.1462704938D+02  0.8300542179D-01
      0.4450122346D+01  0.3199174393D+00
      0.1527579965D+01  0.7071554292D+00
 P   1 1.00       0.000000000000
      0.5293511794D+00  0.1000000000D+01
 P   1 1.00       0.000000000000
      0.1747842127D+00  0.1000000000D+01
 D   1 1.00       0.000000000000
      0.2314000000D+01  0.1000000000D+01
 D   1 1.00       0.000000000000
      0.6450000000D+00  0.1000000000D+01
 F   1 1.00       0.000000000000
      0.1428000000D+01  0.1000000000D+01
 ****
     26 0
 S   6 1.00       0.000000000000
      0.1357534968D+05  0.6064550360D-03
      0.2035233368D+04  0.4697908888D-02
      0.4632256236D+03  0.2433247765D-01
      0.1312001960D+03  0.9739996831D-01
      0.4285301589D+02  0.3019558425D+00
      0.1558418577D+02  0.6623360914D+00
 S   2 1.00       0.000000000000
      0.6206713851D+01  0.6559530854D+00
      0.2576489653D+01  0.3758563329D+00
 S   1 1.00       0.000000000000
      0.5769633942D+00  0.1000000000D+01
 S   1 1.00       0.000000000000
      0.2297283136D+00  0.1000000000D+01
 S   1 1.00       0.000000000000
      0.9516444003D-01  0.1000000000D+01
 P   4 1.00       0.000000000000
      0.3469723224D+02  0.1132722000D-01
      0.7958262283D+01  0.7616965920D-01
      0.2378082688D+01  0.3019225220D+00
      0.8143320818D+00  0.7278502735D+00
 P   1 1.00       0.000000000000
      0.2888754725D+00  0.1000000000D+01
 P   1 1.00       0.000000000000
      0.1005682367D+00  0.1000000000D+01
 D   1 1.00       0.000000000000
      0.1097000000D+01  0.1000000000D+01
 D   1 1.00       0.000000000000
      0.3180000000D+00  0.1000000000D+01
 F   1 1.00       0.000000000000
      0.7610000000D+00  0.1000000000D+01
 ****
     27 0
 S   6 1.00       0.000000000000
      0.1357534968D+05  0.6064550360D-03
      0.2035233368D+04  0.4697908888D-02
      0.4632256236D+03  0.2433247765D-01
      0.1312001960D+03  0.9739996831D-01
      0.4285301589D+02  0.3019558425D+00
      0.1558418577D+02  0.6623360914D+00
 S   2 1.00       0.000000000000
      0.6206713851D+01  0.6559530854D+00
      0.2576489653D+01  0.3758563329D+00
 S   1 1.00       0.000000000000
      0.5769633942D+00  0.1000000000D+01
 S   1 1.00       0.000000000000
      0.2297283136D+00  0.1000000000D+01
 S   1 1.00       0.000000000000
      0.9516444003D-01  0.1000000000D+01
 P   4 1.00       0.000000000000
      0.3469723224D+02  0.1132722000D-01
      0.7958262283D+01  0.7616965920D-01
      0.2378082688D+01  0.3019225220D+00
      0.8143320818D+00  0.7278502735D+00
 P   1 1.00       0.000000000000
      0.2888754725D+00  0.1000000000D+01
 P   1 1.00       0.000000000000
      0.1005682367D+00  0.1000000000D+01
 D   1 1.00       0.000000000000
      0.1097000000D+01  0.1000000000D+01
 D   1 1.00       0.000000000000
      0.3180000000D+00  0.1000000000D+01
 F   1 1.00       0.000000000000
      0.7610000000D+00  0.1000000000D+01
 ****
     28 0
 S   6 1.00       0.000000000000
      0.1357534968D+05  0.6064550360D-03
      0.2035233368D+04  0.4697908888D-02
      0.4632256236D+03  0.2433247765D-01
      0.1312001960D+03  0.9739996831D-01
      0.4285301589D+02  0.3019558425D+00
      0.1558418577D+02  0.6623360914D+00
 S   2 1.00       0.000000000000
      0.6206713851D+01  0.6559530854D+00
      0.2576489653D+01  0.3758563329D+00
 S   1 1.00       0.000000000000
      0.5769633942D+00  0.1000000000D+01
 S   1 1.00       0.000000000000
      0.2297283136D+00  0.1000000000D+01
 S   1 1.00       0.000000000000
      0.9516444003D-01  0.1000000000D+01
 P   4 1.00       0.000000000000
      0.3469723224D+02  0.1132722000D-01
      0.7958262283D+01  0.7616965920D-01
      0.2378082688D+01  0.3019225220D+00
      0.8143320818D+00  0.7278502735D+00
 P   1 1.00       0.000000000000
      0.2888754725D+00  0.1000000000D+01
 P   1 1.00       0.000000000000
      0.1005682367D+00  0.1000000000D+01
 D   1 1.00       0.000000000000
      0.1097000000D+01  0.1000000000D+01
 D   1 1.00       0.000000000000
      0.3180000000D+00  0.1000000000D+01
 F   1 1.00       0.000000000000
      0.7610000000D+00  0.1000000000D+01
 ****
     29 0
 S   6 1.00       0.000000000000
      0.1357534968D+05  0.6064550360D-03
      0.2035233368D+04  0.4697908888D-02
      0.4632256236D+03  0.2433247765D-01
      0.1312001960D+03  0.9739996831D-01
      0.4285301589D+02  0.3019558425D+00
      0.1558418577D+02  0.6623360914D+00
 S   2 1.00       0.000000000000
      0.6206713851D+01  0.6559530854D+00
      0.2576489653D+01  0.3758563329D+00
 S   1 1.00       0.000000000000
      0.5769633942D+00  0.1000000000D+01
 S   1 1.00       0.000000000000
      0.2297283136D+00  0.1000000000D+01
 S   1 1.00       0.000000000000
      0.9516444003D-01  0.1000000000D+01
 P   4 1.00       0.000000000000
      0.3469723224D+02  0.1132722000D-01
      0.7958262283D+01  0.7616965920D-01
      0.2378082688D+01  0.3019225220D+00
      0.8143320818D+00  0.7278502735D+00
 P   1 1.00       0.000000000000
      0.2888754725D+00  0.1000000000D+01
 P   1 1.00       0.000000000000
      0.1005682367D+00  0.1000000000D+01
 D   1 1.00       0.000000000000
      0.1097000000D+01  0.1000000000D+01
 D   1 1.00       0.000000000000
      0.3180000000D+00  0.1000000000D+01
 F   1 1.00       0.000000000000
      0.7610000000D+00  0.1000000000D+01
 ****
     30 0
 S   3 1.00       0.000000000000
      0.3406134100D+02  0.2543930721D-01
      0.5123574600D+01  0.1900859489D+00
      0.1164662600D+01  0.8524411301D+00
 S   1 1.00       0.000000000000
      0.3272304100D+00  0.1000000000D+01
 S   1 1.00       0.000000000000
      0.1030724100D+00  0.1000000000D+01
 P   1 1.00       0.000000000000
      0.8000000000D+00  0.1000000000D+01
 ****
     31 0
 S   3 1.00       0.000000000000
      0.3406134100D+02  0.2543930721D-01
      0.5123574600D+01  0.1900859489D+00
      0.1164662600D+01  0.8524411301D+00
 S   1 1.00       0.000000000000
      0.3272304100D+00  0.1000000000D+01
 S   1 1.00       0.000000000000
      0.1030724100D+00  0.1000000000D+01
 P   1 1.00       0.000000000000
      0.8000000000D+00  0.1000000000D+01
 ****
     32 0
 S   6 1.00       0.000000000000
      0.1357534968D+05  0.6064550360D-03
      0.2035233368D+04  0.4697908888D-02
      0.4632256236D+03  0.2433247765D-01
      0.1312001960D+03  0.9739996831D-01
      0.4285301589D+02  0.3019558425D+00
      0.1558418577D+02  0.6623360914D+00
 S   2 1.00       0.000000000000
      0.6206713851D+01  0.6559530854D+00
      0.2576489653D+01  0.3758563329D+00
 S   1 1.00       0.000000000000
[...]
     7  H    0.000001  -0.000003   0.000017   0.000000  -0.000001  -0.000001
     8  H   -0.000001  -0.000001   0.000006   0.000002  -0.000000  -0.000009
     9  H   -0.000000   0.000000  -0.000001  -0.000000   0.000000  -0.000000
    10  H    0.000641  -0.000054  -0.001556   0.000058  -0.000026   0.000281
    11  N   -0.000032   0.002711   0.005191   0.000300   0.000176  -0.000416
    12  C    0.011577  -0.037006  -0.020783  -0.024769   0.006933   0.015551
    13  C   -0.016264  -0.021240   0.239963  -0.022455  -0.069044  -0.016667
    14  C    0.000084  -0.000055  -0.000723  -0.000028   0.000009   0.000014
    15  H    0.000003  -0.000009  -0.000056   0.000001  -0.000003   0.000001
    16  H   -0.000001   0.000002  -0.000063   0.000013   0.000007  -0.000003
    17  C    0.401454   0.416303  -0.096542   0.010451  -0.008811  -0.013155
    18  H   -0.016468  -0.026776   0.011257  -0.000291   0.000047  -0.000192
    19  H    0.493125  -0.019086  -0.009958  -0.000131   0.000146   0.002165
    20  H   -0.019086   0.503416  -0.011435  -0.000191   0.001852   0.000068
    21  C   -0.009958  -0.011435   5.207939   0.427493   0.419839   0.405891
    22  H   -0.000131  -0.000191   0.427493   0.496398  -0.022278  -0.024153
    23  H    0.000146   0.001852   0.419839  -0.022278   0.504830  -0.023285
    24  H    0.002165   0.000068   0.405891  -0.024153  -0.023285   0.507966
    25  O   -0.000266   0.000160  -0.001068   0.001295  -0.001121   0.001437
    26  C   -0.000080   0.000031  -0.007006  -0.003386  -0.001855   0.000220
    27  C    0.001786   0.005037  -0.010125   0.004114   0.000424  -0.000683
    28  C   -0.000092   0.002310  -0.002044  -0.000204   0.001168  -0.000222
    29  C    0.000039  -0.000140   0.000340   0.000512  -0.000318   0.000037
    30  H    0.000642  -0.007917   0.001423  -0.000079   0.000226  -0.000047
    31  H   -0.000004   0.000065  -0.000034   0.000004   0.000014  -0.000000
    32  C    0.000000   0.000008  -0.000061  -0.000009  -0.000055   0.000003
    33  C   -0.000004  -0.000008   0.000082   0.000960   0.000343  -0.000080
    34  C    0.000000   0.000000  -0.000140   0.000014   0.000002   0.000002
    35  C   -0.000000   0.000000   0.000074   0.000017   0.000004  -0.000000
    36  H    0.000000   0.000000  -0.000003   0.000001  -0.000000   0.000000
    37  H   -0.000000  -0.000000  -0.000187   0.000259   0.000000  -0.000002
    38  H   -0.000000   0.000000  -0.000001  -0.000002  -0.000000   0.000000
    39  N   -0.000000   0.000000  -0.000000   0.000000  -0.000000   0.000000
    40  O   -0.000000   0.000000   0.000000   0.000000  -0.000000  -0.000000
    41  O    0.000000  -0.000000   0.000000   0.000000   0.000000  -0.000000
    42  H   -0.000002  -0.000003   0.000035  -0.000001  -0.000000  -0.000000
              25         26         27         28         29         30
     1  C   -0.000515   0.000010  -0.000277  -0.000040   0.000084  -0.000000
     2  C    0.000568   0.000749  -0.000614   0.000111  -0.000538   0.000042
     3  C    0.015647  -0.005578   0.025508  -0.002970  -0.002309  -0.000001
     4  C   -0.006204   0.002722  -0.030077   0.000188   0.000501  -0.000945
     5  C   -0.002087   0.000355  -0.002824  -0.000076   0.000215  -0.000036
     6  C    0.000359   0.000091   0.000125   0.000028  -0.000032   0.000000
     7  H    0.000100   0.000049   0.000029  -0.000002  -0.000023   0.000004
     8  H   -0.000002  -0.000001   0.000000   0.000000  -0.000000  -0.000000
     9  H   -0.000003  -0.000000  -0.000000  -0.000000  -0.000000   0.000000
    10  H   -0.000028   0.000001  -0.000040  -0.000007   0.000004   0.000000
    11  N   -0.070103   0.023458  -0.069605   0.016897   0.000027  -0.000033
    12  C    0.157979  -0.050897   0.269672  -0.083025   0.018349  -0.017179
    13  C   -0.037159  -0.004918   0.002381   0.012208  -0.002801  -0.012307
    14  C    0.003899   0.012088  -0.022587  -0.004903  -0.015872   0.000162
    15  H   -0.002105  -0.011056   0.005259  -0.021983   0.009772   0.000367
    16  H    0.006969   0.007468   0.001078   0.004623  -0.014808  -0.000029
    17  C    0.004054   0.000806  -0.017685  -0.003006   0.000112  -0.002177
    18  H    0.000279   0.000284  -0.016682   0.000459  -0.000320   0.000013
    19  H   -0.000266  -0.000080   0.001786  -0.000092   0.000039   0.000642
    20  H    0.000160   0.000031   0.005037   0.002310  -0.000140  -0.007917
    21  C   -0.001068  -0.007006  -0.010125  -0.002044   0.000340   0.001423
    22  H    0.001295  -0.003386   0.004114  -0.000204   0.000512  -0.000079
    23  H   -0.001121  -0.001855   0.000424   0.001168  -0.000318   0.000226
    24  H    0.001437   0.000220  -0.000683  -0.000222   0.000037  -0.000047
    25  O    8.003235   0.318077  -0.037222   0.012049  -0.068713   0.003035
    26  C    0.318077   5.101420  -0.089792  -0.006089   0.263420  -0.000998
    27  C   -0.037222  -0.089792   5.350645   0.474395  -0.024608   0.410527
    28  C    0.012049  -0.006089   0.474395   5.197238   0.283386  -0.026556
    29  C   -0.068713   0.263420  -0.024608   0.283386   5.156820   0.008022
    30  H    0.003035  -0.000998   0.410527  -0.026556   0.008022   0.455077
    31  H   -0.000454   0.006658  -0.019928   0.414923  -0.039689  -0.005209
    32  C    0.006694   0.006347   0.006794  -0.111984   0.392697  -0.000075
    33  C   -0.044641   0.462049   0.007924   0.014127  -0.029692  -0.000037
    34  C    0.005454  -0.033639   0.000171   0.000498  -0.073534   0.000002
    35  C   -0.000031  -0.113834  -0.001683   0.021460  -0.040990  -0.000016
    36  H   -0.000096   0.013641   0.000742  -0.007295  -0.001112  -0.000015
    37  H    0.006477  -0.037535   0.000400  -0.000524   0.008125  -0.000007
    38  H   -0.000112   0.006647  -0.000030   0.000151  -0.000673   0.000000
    39  N   -0.000006  -0.000479   0.000011  -0.000463   0.006937  -0.000000
    40  O    0.000000   0.001983  -0.000002  -0.000436   0.000427   0.000000
    41  O    0.000000   0.001299  -0.000001  -0.000012  -0.001359   0.000000
    42  H   -0.000275  -0.000595  -0.001795  -0.000424   0.001025  -0.000007
              31         32         33         34         35         36
     1  C    0.000000  -0.000001  -0.000112  -0.000003   0.000000  -0.000000
     2  C   -0.000000   0.000012   0.000688   0.000017  -0.000003   0.000000
     3  C    0.000030   0.000328   0.002403   0.000246  -0.000041   0.000005
     4  C    0.000040  -0.000087  -0.000059  -0.000114   0.000022  -0.000003
     5  C   -0.000001  -0.000002  -0.000228  -0.000009   0.000000  -0.000000
     6  C    0.000000  -0.000000   0.000016   0.000000   0.000000   0.000000
     7  H   -0.000000   0.000000   0.000026  -0.000001   0.000000   0.000000
     8  H   -0.000000   0.000000   0.000000   0.000000  -0.000000   0.000000
     9  H   -0.000000   0.000000   0.000000  -0.000000   0.000000  -0.000000
    10  H   -0.000000  -0.000000  -0.000003  -0.000000   0.000000  -0.000000
    11  N   -0.000422   0.000019  -0.000997  -0.000456   0.000106  -0.000013
    12  C    0.007564  -0.007272  -0.020683   0.000750   0.000742  -0.000069
    13  C   -0.000443   0.000163   0.000625   0.000308  -0.000112   0.000008
    14  C   -0.000436   0.003531   0.000709   0.000817  -0.000845   0.000023
    15  H   -0.000191   0.001157  -0.002126   0.000629  -0.000199   0.000030
    16  H    0.000000   0.000847   0.003318   0.000660  -0.000195   0.000019
    17  C    0.000250   0.000003   0.000130  -0.000005   0.000003   0.000000
    18  H   -0.000010  -0.000005   0.000013  -0.000000  -0.000000  -0.000000
    19  H   -0.000004   0.000000  -0.000004   0.000000  -0.000000   0.000000
    20  H    0.000065   0.000008  -0.000008   0.000000   0.000000   0.000000
    21  C   -0.000034  -0.000061   0.000082  -0.000140   0.000074  -0.000003
    22  H    0.000004  -0.000009   0.000960   0.000014   0.000017   0.000001
    23  H    0.000014  -0.000055   0.000343   0.000002   0.000004  -0.000000
    24  H   -0.000000   0.000003  -0.000080   0.000002  -0.000000   0.000000
    25  O   -0.000454   0.006694  -0.044641   0.005454  -0.000031  -0.000096
    26  C    0.006658   0.006347   0.462049  -0.033639  -0.113834   0.013641
    27  C   -0.019928   0.006794   0.007924   0.000171  -0.001683   0.000742
    28  C    0.414923  -0.111984   0.014127   0.000498   0.021460  -0.007295
    29  C   -0.039689   0.392697  -0.029692  -0.073534  -0.040990  -0.001112
    30  H   -0.005209  -0.000075  -0.000037   0.000002  -0.000016  -0.000015
    31  H    0.472689  -0.008741   0.000090  -0.000050   0.001797   0.002808
    32  C   -0.008741   5.379070  -0.140129  -0.041798   0.294804   0.374738
    33  C    0.000090  -0.140129   5.156194   0.418233   0.000232  -0.001553
    34  C   -0.000050  -0.041798   0.418233   5.149705   0.294224  -0.000533
    35  C    0.001797   0.294804   0.000232   0.294224   5.459619  -0.035893
    36  H    0.002808   0.374738  -0.001553  -0.000533  -0.035893   0.431673
    37  H    0.000014  -0.000694   0.408723  -0.025739   0.007025   0.000042
    38  H   -0.000002   0.002403  -0.019509   0.409363  -0.048966  -0.000311
    39  N   -0.000000  -0.048806   0.005641  -0.038824   0.351606  -0.001719
    40  O   -0.000010   0.033438  -0.001575   0.028275  -0.128395   0.024361
    41  O   -0.000000   0.028796  -0.000244   0.033689  -0.128266   0.001709
    42  H    0.000010  -0.000136  -0.000035  -0.000056   0.000025  -0.000002
              37         38         39         40         41         42
     1  C   -0.000010   0.000000   0.000000  -0.000000   0.000000   0.003078
     2  C    0.000012   0.000000  -0.000000   0.000000  -0.000000  -0.008020
     3  C    0.000201  -0.000001   0.000000  -0.000000  -0.000000  -0.018625
     4  C    0.000037   0.000001  -0.000000  -0.000000   0.000000   0.002614
     5  C   -0.000004   0.000000  -0.000000  -0.000000   0.000000   0.000737
     6  C    0.000006  -0.000000  -0.000000   0.000000  -0.000000  -0.000431
     7  H    0.000003   0.000000  -0.000000  -0.000000   0.000000  -0.004122
     8  H   -0.000000   0.000000  -0.000000  -0.000000  -0.000000  -0.000001
     9  H   -0.000000   0.000000  -0.000000  -0.000000   0.000000   0.000016
    10  H    0.000000  -0.000000   0.000000  -0.000000   0.000000   0.000002
    11  N   -0.000156   0.000000   0.000000  -0.000000   0.000000  -0.020456
    12  C   -0.000369   0.000028  -0.000003   0.000001   0.000000   0.015761
    13  C    0.000167  -0.000002  -0.000000   0.000000  -0.000000  -0.003860
    14  C   -0.000250   0.000007  -0.000004   0.000000  -0.000000   0.403682
    15  H   -0.000038   0.000000   0.000000   0.000000  -0.000000  -0.011439
    16  H    0.000174   0.000003   0.000000  -0.000000   0.000000  -0.036990
    17  C    0.000012   0.000000   0.000000  -0.000000  -0.000000   0.000181
    18  H    0.000000   0.000000  -0.000000  -0.000000   0.000000  -0.000106
    19  H   -0.000000  -0.000000  -0.000000  -0.000000   0.000000  -0.000002
    20  H   -0.000000   0.000000   0.000000   0.000000  -0.000000  -0.000003
    21  C   -0.000187  -0.000001  -0.000000   0.000000   0.000000   0.000035
    22  H    0.000259  -0.000002   0.000000   0.000000   0.000000  -0.000001
    23  H    0.000000  -0.000000  -0.000000  -0.000000   0.000000  -0.000000
    24  H   -0.000002   0.000000   0.000000  -0.000000  -0.000000  -0.000000
    25  O    0.006477  -0.000112  -0.000006   0.000000   0.000000  -0.000275
    26  C   -0.037535   0.006647  -0.000479   0.001983   0.001299  -0.000595
    27  C    0.000400  -0.000030   0.000011  -0.000002  -0.000001  -0.001795
    28  C   -0.000524   0.000151  -0.000463  -0.000436  -0.000012  -0.000424
    29  C    0.008125  -0.000673   0.006937   0.000427  -0.001359   0.001025
    30  H   -0.000007   0.000000  -0.000000   0.000000   0.000000  -0.000007
    31  H    0.000014  -0.000002  -0.000000  -0.000010  -0.000000   0.000010
    32  C   -0.000694   0.002403  -0.048806   0.033438   0.028796  -0.000136
    33  C    0.408723  -0.019509   0.005641  -0.001575  -0.000244  -0.000035
    34  C   -0.025739   0.409363  -0.038824   0.028275   0.033689  -0.000056
    35  C    0.007025  -0.048966   0.351606  -0.128395  -0.128266   0.000025
    36  H    0.000042  -0.000311  -0.001719   0.024361   0.001709  -0.000002
    37  H    0.456959  -0.004164  -0.000108  -0.000002  -0.000084   0.000005
    38  H   -0.004164   0.435573  -0.001905   0.001571   0.022419  -0.000000
    39  N   -0.000108  -0.001905   5.619275   0.337929   0.342104   0.000000
    40  O   -0.000002   0.001571   0.337929   8.319420  -0.220521   0.000000
    41  O   -0.000084   0.022419   0.342104  -0.220521   8.316292   0.000000
    42  H    0.000005  -0.000000   0.000000   0.000000   0.000000   0.510788
 Mulliken charges:
               1
     1  C   -0.161145
     2  C   -0.244102
     3  C    0.146439
     4  C   -0.042856
     5  C   -0.202305
     6  C   -0.193846
     7  H    0.171003
     8  H    0.155707
     9  H    0.156826
    10  H    0.166517
    11  N   -0.132167
    12  C    0.191688
    13  C    0.115234
    14  C   -0.437511
    15  H    0.175259
    16  H    0.185892
    17  C   -0.523722
    18  H    0.184634
    19  H    0.167470
    20  H    0.173666
    21  C   -0.472189
    22  H    0.171348
    23  H    0.166472
    24  H    0.164284
    25  O   -0.275561
    26  C    0.137867
    27  C   -0.220762
    28  C   -0.183860
    29  C    0.166679
    30  H    0.194127
    31  H    0.168671
    32  C   -0.171999
    33  C   -0.220813
    34  C   -0.128161
    35  C    0.067710
    36  H    0.198816
    37  H    0.181231
    38  H    0.197512
    39  N    0.428812
    40  O   -0.396465
    41  O   -0.395821
    42  H    0.169422
 Sum of Mulliken charges =  -0.00000
 Mulliken charges with hydrogens summed into heavy atoms:
               1
     1  C   -0.004319
     2  C   -0.073099
     3  C    0.146439
     4  C   -0.042856
     5  C   -0.035789
     6  C   -0.038139
    11  N   -0.132167
    12  C    0.191688
    13  C    0.115234
    14  C    0.093063
    17  C    0.002047
    21  C    0.029915
    25  O   -0.275561
    26  C    0.137867
    27  C   -0.026635
    28  C   -0.015189
    29  C    0.166679
    32  C    0.026817
    33  C   -0.039583
    34  C    0.069351
    35  C    0.067710
    39  N    0.428812
    40  O   -0.396465
    41  O   -0.395821
 Electronic spatial extent (au):  <R**2>=           8780.5397
 Charge=              0.0000 electrons
 Dipole moment (field-independent basis, Debye):
    X=              8.2055    Y=              2.0600    Z=             -0.6792  Tot=              8.4873
 Quadrupole moment (field-independent basis, Debye-Ang):
   XX=           -203.8677   YY=           -130.5425   ZZ=           -134.6323
   XY=             -5.9118   XZ=              2.7918   YZ=              0.2258
 Traceless Quadrupole moment (field-independent basis, Debye-Ang):
   XX=            -47.5202   YY=             25.8050   ZZ=             21.7152
   XY=             -5.9118   XZ=              2.7918   YZ=              0.2258
 Octapole moment (field-independent basis, Debye-Ang**2):
  XXX=            433.1309  YYY=              5.9365  ZZZ=             -3.3784  XYY=              6.6022
  XXY=             37.4691  XXZ=             25.9443  XZZ=             -7.3277  YZZ=             -5.5029
  YYZ=            -13.2140  XYZ=             11.9242
 Hexadecapole moment (field-independent basis, Debye-Ang**3):
 XXXX=         -12178.1660 YYYY=          -1598.0281 ZZZZ=           -986.6607 XXXY=           -341.8544
 XXXZ=            142.9694 YYYX=            -20.1920 YYYZ=            -18.1569 ZZZX=              4.0000
 ZZZY=              6.2690 XXYY=          -1769.7715 XXZZ=          -1671.3009 YYZZ=           -408.0021
 XXYZ=             56.4292 YYXZ=            -14.0749 ZZXY=              9.2135
 N-N= 2.054572226254D+03 E-N=-6.598937845623D+03  KE= 1.064639397443D+03
 No NMR shielding tensors so no spin-rotation constants.
 Leave Link  601 at Wed May  8 09:07:15 2024, MaxMem=  2684354560 cpu:              20.5 elap:               1.1
 (Enter /s/ls4/groups/g0130/bin/g16/l9999.exe)
 Electronic transition elements 
                 1             2             3             4             5 
      1  -0.106979D+04 -0.106975D+04 -0.106974D+04 -0.106972D+04 -0.106972D+04
      2  -0.404828D-02  0.155469D+01 -0.147375D+01 -0.109030D+01  0.138149D+00
      3   0.228575D-02 -0.567597D+00  0.666614D+00  0.451964D+00 -0.112291D+00
      4   0.264873D-03  0.849720D-01 -0.273024D+00 -0.953332D-01  0.376156D-01
      5   0.370602D-03 -0.218235D+00  0.218506D+00  0.181965D+00 -0.250293D-01
      6  -0.279073D-03  0.794338D-01 -0.990004D-01 -0.761836D-01  0.152189D-01
      7  -0.415876D-04 -0.116753D-01  0.404158D-01  0.160728D-01 -0.567556D-02
      8   0.690478D+00  0.181224D+00 -0.411978D-01 -0.253095D+00  0.671063D-01
      9  -0.351007D+00  0.556538D-01 -0.269677D+00 -0.586948D+00  0.294423D+00
     10   0.470103D-01  0.995097D-01 -0.198410D+00  0.758983D-01  0.113017D+01
     11   0.458611D-02 -0.136453D+01  0.226227D+01  0.163262D+01 -0.108918D+00
     12  -0.664135D-02 -0.166935D+00  0.307334D+00  0.286226D+00 -0.129218D+00
     13   0.825358D-02  0.544731D-01 -0.139074D+00  0.194953D-01 -0.569861D-02
     14  -0.503041D-02  0.718063D+00 -0.100227D+01 -0.833689D+00  0.191025D+00
     15  -0.112474D-01  0.107783D+00  0.167728D+00 -0.126093D+00  0.858849D-02
     16  -0.208819D-01 -0.493166D-01 -0.663384D-01  0.516621D-01  0.163389D-03
 1\1\GINC-N312\FOpt\RM062X TD-FC\def2TZVP\C19H18N2O3\ARTD\08-May-2024\0
 \\#p M062X/def2TZVP SCRF(PCM,Solvent=chloroform) TD(Singlets,NStates=5
 , root=1) integral=ultrafine opt guess=(read) geom=(allcheck) gfinput\
 \TITLE\\0,1\C,-5.5317637277,1.3868395194,-1.4844773953\C,-4.6076186625
 ,0.8303193419,-0.5983842167\C,-3.6721078274,1.6756510578,-0.0254351876
 \C,-3.6399331655,3.0360502881,-0.3347672405\C,-4.553941407,3.575645383
 4,-1.2112027118\C,-5.511651455,2.7388058529,-1.7924222088\H,-4.6240102
 726,-0.2286370197,-0.3777058408\H,-6.2331755322,3.1452285629,-2.488400
 0461\H,-6.2710883186,0.7443068432,-1.9455337555\H,-4.5292473728,4.6318
 783449,-1.4537028361\N,-2.6646717275,1.3651196806,0.8932217354\C,-1.68
 35285702,2.4337889199,0.8463671942\C,-2.5413625923,3.6903890841,0.4725
 581014\C,-2.2054129296,-0.0035847893,1.0030666962\H,-1.4282364735,-0.0
 637644684,1.7634585589\H,-1.8088808996,-0.3804226325,0.0528719428\C,-3
 .1706340604,4.3191473525,1.7237143662\H,-3.6710512309,3.569160327,2.33
 81050763\H,-3.9132991828,5.052854205,1.4100156334\H,-2.4207284633,4.83
 3120118,2.3273482493\C,-1.7451763166,4.7457433118,-0.2830223729\H,-1.3
 912092962,4.3739307282,-1.2415690711\H,-0.8845179907,5.0679945219,0.30
 71961024\H,-2.3764861246,5.6182009667,-0.4586134593\O,-0.8007126563,2.
 2128508696,-0.2808869193\C,0.3781007664,1.5764495738,-0.1376078967\C,-
 0.9150407377,2.5299211511,2.1295727647\C,0.3337118157,2.0866212982,2.2
 471339354\C,1.0186997338,1.501878856,1.1053511432\H,-1.4480263688,2.92
 31824426,2.9831162433\H,0.8550791362,2.131822556,3.1955173987\C,2.2573
 812312,0.8840505077,1.1952831687\C,0.9722887545,1.0463533231,-1.280253
 0249\C,2.2045978514,0.4320390779,-1.1953521183\C,2.835567617,0.3546766
 324,0.0474341983\H,2.7698750039,0.8159158901,2.1462487406\H,0.45363149
 62,1.1263643119,-2.2257024009\H,2.6814605343,0.013111516,-2.0706205238
 \N,4.0702550761,-0.2636094738,0.1384858378\O,4.7768985763,-0.418957745
 3,1.1947326155\O,4.7362573092,-0.7975346876,-0.8155725829\H,-3.0313715
 944,-0.6417534671,1.3146182009\\Version=ES64L-G16RevA.03\State=1-A\HF=
 -1069.8842617\RMSD=6.549e-09\RMSF=3.324e-05\Dipole=-1.6395721,0.831799
 7,0.5452907\PG=C01 [X(C19H18N2O3)]\\@


 LIFE IS SO UNCERTAIN - EAT DESSERT FIRST.
 Job cpu time:      13 days  8 hours 29 minutes 12.7 seconds.
 Elapsed time:       0 days 13 hours 21 minutes 34.2 seconds.
 File lengths (MBytes):  RWF=   2536 Int=      0 D2E=      0 Chk=    181 Scr=      1
 Normal termination of Gaussian 16 at Wed May  8 09:07:17 2024.
