 Entering Gaussian System, Link 0=/s/ls4/groups/g0130/bin/g16/g16
 Input=sp1_s1_b3lyp.gjf
 Output=sp1_s1_b3lyp.log
 Initial command:
 /s/ls4/groups/g0130/bin/g16/l1.exe "/dev/shm/scratch_artd/Gau-37073.inp" -scrdir="/dev/shm/scratch_artd/"
 Entering Link 1 = /s/ls4/groups/g0130/bin/g16/l1.exe PID=     37074.
  
 Copyright (c) 1988,1990,1992,1993,1995,1998,2003,2009,2016,
            Gaussian, Inc.  All Rights Reserved.
  
 This is part of the Gaussian(R) 16 program.  It is based on
 the Gaussian(R) 09 system (copyright 2009, Gaussian, Inc.),
 the Gaussian(R) 03 system (copyright 2003, Gaussian, Inc.),
 the Gaussian(R) 98 system (copyright 1998, Gaussian, Inc.),
 the Gaussian(R) 94 system (copyright 1995, Gaussian, Inc.),
 the Gaussian 92(TM) system (copyright 1992, Gaussian, Inc.),
 the Gaussian 90(TM) system (copyright 1990, Gaussian, Inc.),
 the Gaussian 88(TM) system (copyright 1988, Gaussian, Inc.),
 the Gaussian 86(TM) system (copyright 1986, Carnegie Mellon
 University), and the Gaussian 82(TM) system (copyright 1983,
 Carnegie Mellon University). Gaussian is a federally registered
 trademark of Gaussian, Inc.
  
 This software contains proprietary and confidential information,
 including trade secrets, belonging to Gaussian, Inc.
  
 This software is provided under written license and may be
 used, copied, transmitted, or stored only in accord with that
 written license.
  
 The following legend is applicable only to US Government
 contracts under FAR:
  
                    RESTRICTED RIGHTS LEGEND
  
 Use, reproduction and disclosure by the US Government is
 subject to restrictions as set forth in subparagraphs (a)
 and (c) of the Commercial Computer Software - Restricted
 Rights clause in FAR 52.227-19.
  
 Gaussian, Inc.
 340 Quinnipiac St., Bldg. 40, Wallingford CT 06492
  
  
 ---------------------------------------------------------------
 Warning -- This program may not be used in any manner that
 competes with the business of Gaussian, Inc. or will provide
 assistance to any competitor of Gaussian, Inc.  The licensee
 of this program is prohibited from giving any competitor of
 Gaussian, Inc. access to this program.  By using this program,
 the user acknowledges that Gaussian, Inc. is engaged in the
 business of creating and licensing software in the field of
 computational chemistry and represents and warrants to the
 licensee that it is not a competitor of Gaussian, Inc. and that
 it will not use this program in any manner prohibited above.
 ---------------------------------------------------------------
  

 Cite this work as:
 Gaussian 16, Revision A.03,
 M. J. Frisch, G. W. Trucks, H. B. Schlegel, G. E. Scuseria, 
 M. A. Robb, J. R. Cheeseman, G. Scalmani, V. Barone, 
 G. A. Petersson, H. Nakatsuji, X. Li, M. Caricato, A. V. Marenich, 
 J. Bloino, B. G. Janesko, R. Gomperts, B. Mennucci, H. P. Hratchian, 
 J. V. Ortiz, A. F. Izmaylov, J. L. Sonnenberg, D. Williams-Young, 
 F. Ding, F. Lipparini, F. Egidi, J. Goings, B. Peng, A. Petrone, 
 T. Henderson, D. Ranasinghe, V. G. Zakrzewski, J. Gao, N. Rega, 
 G. Zheng, W. Liang, M. Hada, M. Ehara, K. Toyota, R. Fukuda, 
 J. Hasegawa, M. Ishida, T. Nakajima, Y. Honda, O. Kitao, H. Nakai, 
 T. Vreven, K. Throssell, J. A. Montgomery, Jr., J. E. Peralta, 
 F. Ogliaro, M. J. Bearpark, J. J. Heyd, E. N. Brothers, K. N. Kudin, 
 V. N. Staroverov, T. A. Keith, R. Kobayashi, J. Normand, 
 K. Raghavachari, A. P. Rendell, J. C. Burant, S. S. Iyengar, 
 J. Tomasi, M. Cossi, J. M. Millam, M. Klene, C. Adamo, R. Cammi, 
 J. W. Ochterski, R. L. Martin, K. Morokuma, O. Farkas, 
 J. B. Foresman, and D. J. Fox, Gaussian, Inc., Wallingford CT, 2016.
 
 ******************************************
 Gaussian 16:  ES64L-G16RevA.03 25-Dec-2016
                 7-May-2024 
 ******************************************
 %nprocshared=24
 Will use up to   24 processors via shared memory.
 %mem=20GB
 %oldchk=sp1_gs_b3lyp.chk
 %chk=sp1_s1_b3lyp.chk
 Copying data from "sp1_gs_b3lyp.chk" to current chk file "sp1_s1_b3lyp.chk"
 IOpt=  2 FromEx=T IUOpen= 4 IOptOp= 5 NList=   0 IFRang= 0 IUIn= 4 IUOut= 2.
 ----------------------------------------------------------------------
 #p CAM-B3LYP/def2TZVP EmpiricalDispersion=GD3BJ SCRF(PCM,Solvent=chlor
 oform) TD(Singlets,NStates=5, root=1) opt guess=(read) geom=(allcheck)
  gfinput
 ----------------------------------------------------------------------
 1/18=20,19=15,26=3,29=7,38=1/1,3;
 2/9=110,12=2,40=1/2;
 3/5=44,7=101,11=9,14=-4,24=10,25=1,30=1,70=2201,71=1,72=7,74=-40,116=-2,124=41/1,2,3,8;
 4/5=1/1;
 5/5=2,38=6,53=7/2;
 8/6=1,10=1,107=1,108=5/1;
 9/8=1,15=2,41=5,42=1,48=1,70=2/14;
 10/5=4,28=1/2;
 6/7=2,8=2,9=2,10=2/1;
 7/12=6,13=5,14=1/1,2,3,16;
 1/18=20,19=15,26=3/3(2);
 2/9=110/2;
 99//99;
 2/9=110/2;
 3/5=44,7=101,11=9,14=-2,25=1,30=1,70=2205,71=1,72=7,74=-40,124=41/1,2,3,8;
 4/5=5,16=3,69=1/1;
 5/5=2,38=5,53=7/2;
 8/6=1,10=1,107=1,108=5/1;
 9/8=1,15=2,41=5,42=1,48=1,49=4,70=2/14;
 10/5=4,28=1/2;
 7/12=6,13=5,14=1/1,2,3,16;
 1/18=20,19=15,26=3/3(-8);
 2/9=110/2;
 6/7=2,8=2,9=2,10=2/1;
 99//99;
 Leave Link    1 at Tue May  7 19:45:08 2024, MaxMem=  2684354560 cpu:              16.0 elap:               0.7
 (Enter /s/ls4/groups/g0130/bin/g16/l101.exe)
 Structure from the checkpoint file:  "sp1_s1_b3lyp.chk"
 -----
 TITLE
 -----
 Charge =  0 Multiplicity = 1
 Redundant internal coordinates found in file.  (old form).
 C,0,-5.7776982002,1.75401565,-1.4641436875
 C,0,-5.0314755703,1.0553235096,-0.5180613353
 C,0,-3.922447208,1.6793435579,0.0195289572
 C,0,-3.5531006529,2.9627467032,-0.3760159022
 C,0,-4.2935821513,3.6422780643,-1.3114731755
 C,0,-5.4193440107,3.0294027301,-1.8622589438
 H,0,-5.314270211,0.0538175539,-0.2258944627
 H,0,-6.0089347775,3.5501970633,-2.6042524921
 H,0,-6.6485036043,1.2821630113,-1.900224945
 H,0,-4.0088807669,4.6391567407,-1.6243539301
 N,0,-3.0359312337,1.1999985076,0.982460477
 C,0,-1.83400371,1.9836003896,0.9174703081
 C,0,-2.3396010468,3.3826454135,0.4203997068
 C,0,-2.9520185053,-0.2114997482,1.2728601471
 H,0,-2.2281000372,-0.3722092177,2.0689421675
 H,0,-2.6488581979,-0.7983081963,0.400054552
 C,0,-2.7970613331,4.241699771,1.6046997607
 H,0,-3.5175840562,3.7122964715,2.2273682297
 H,0,-3.2773564946,5.1429141785,1.2258155462
 H,0,-1.9520029965,4.5428178621,2.2241782406
 C,0,-1.2858255311,4.1338885696,-0.3778486113
 H,0,-1.0072170891,3.6008998456,-1.2833565202
 H,0,-0.3896275838,4.2982025224,0.2228612593
 H,0,-1.6714691928,5.112280916,-0.6637067757
 O,0,-1.0250011057,1.4004467446,-0.1539415496
 C,0,0.3010136406,1.2632861344,-0.0816532522
 C,0,-1.0868988236,2.0050705263,2.2100229155
 C,0,0.2178899864,1.7914286394,2.2956548654
 C,0,0.9964179942,1.4602842353,1.1165037766
 H,0,-1.676316688,2.2281063898,3.0869919597
 H,0,0.7255333084,1.842027382,3.2501140947
 C,0,2.3678356622,1.2935100948,1.1307098691
 C,0,0.9705394417,0.8870215421,-1.2408386192
 C,0,2.3370952195,0.7266003858,-1.2194573238
 C,0,3.0229112896,0.9360940681,-0.0329153269
 H,0,2.9279796776,1.4352577435,2.0428664544
 H,0,0.4031611616,0.7340036004,-2.1475415796
 H,0,2.8782480948,0.445346222,-2.1092294012
 N,0,4.4661898309,0.7700538604,-0.0090373707
 O,0,5.0499280538,0.9583716822,1.0421887442
 O,0,5.0255812873,0.4503589942,-1.0411613504
 H,0,-3.9182939242,-0.5737919821,1.6198606175
 Recover connectivity data from disk.
 ITRead=  0  0  0  0  0  0  0  0  0  0  0  0  0  0  0  0  0  0  0  0
 ITRead=  0  0  0  0  0  0  0  0  0  0  0  0  0  0  0  0  0  0  0  0
 ITRead=  0  0
 MicOpt= -1 -1 -1 -1 -1 -1 -1 -1 -1 -1 -1 -1 -1 -1 -1 -1 -1 -1 -1 -1
 MicOpt= -1 -1 -1 -1 -1 -1 -1 -1 -1 -1 -1 -1 -1 -1 -1 -1 -1 -1 -1 -1
 MicOpt= -1 -1
 NAtoms=     42 NQM=       42 NQMF=       0 NMMI=      0 NMMIF=      0
                NMic=       0 NMicF=      0.
                    Isotopes and Nuclear Properties:
 (Nuclear quadrupole moments (NQMom) in fm**2, nuclear magnetic moments (NMagM)
  in nuclear magnetons)

  Atom         1           2           3           4           5           6           7           8           9          10
 IAtWgt=          12          12          12          12          12          12           1           1           1           1
 AtmWgt=  12.0000000  12.0000000  12.0000000  12.0000000  12.0000000  12.0000000   1.0078250   1.0078250   1.0078250   1.0078250
 NucSpn=           0           0           0           0           0           0           1           1           1           1
 AtZEff=   3.6000000   3.6000000   3.6000000   3.6000000   3.6000000   3.6000000   1.0000000   1.0000000   1.0000000   1.0000000
 NQMom=    0.0000000   0.0000000   0.0000000   0.0000000   0.0000000   0.0000000   0.0000000   0.0000000   0.0000000   0.0000000
 NMagM=    0.0000000   0.0000000   0.0000000   0.0000000   0.0000000   0.0000000   2.7928460   2.7928460   2.7928460   2.7928460
 AtZNuc=   6.0000000   6.0000000   6.0000000   6.0000000   6.0000000   6.0000000   1.0000000   1.0000000   1.0000000   1.0000000

  Atom        11          12          13          14          15          16          17          18          19          20
 IAtWgt=          14          12          12          12           1           1          12           1           1           1
 AtmWgt=  14.0030740  12.0000000  12.0000000  12.0000000   1.0078250   1.0078250  12.0000000   1.0078250   1.0078250   1.0078250
 NucSpn=           2           0           0           0           1           1           0           1           1           1
 AtZEff=   4.5500000   3.6000000   3.6000000   3.6000000   1.0000000   1.0000000   3.6000000   1.0000000   1.0000000   1.0000000
 NQMom=    2.0440000   0.0000000   0.0000000   0.0000000   0.0000000   0.0000000   0.0000000   0.0000000   0.0000000   0.0000000
 NMagM=    0.4037610   0.0000000   0.0000000   0.0000000   2.7928460   2.7928460   0.0000000   2.7928460   2.7928460   2.7928460
 AtZNuc=   7.0000000   6.0000000   6.0000000   6.0000000   1.0000000   1.0000000   6.0000000   1.0000000   1.0000000   1.0000000

  Atom        21          22          23          24          25          26          27          28          29          30
 IAtWgt=          12           1           1           1          16          12          12          12          12           1
 AtmWgt=  12.0000000   1.0078250   1.0078250   1.0078250  15.9949146  12.0000000  12.0000000  12.0000000  12.0000000   1.0078250
 NucSpn=           0           1           1           1           0           0           0           0           0           1
 AtZEff=   3.6000000   1.0000000   1.0000000   1.0000000   5.6000000   3.6000000   3.6000000   3.6000000   3.6000000   1.0000000
 NQMom=    0.0000000   0.0000000   0.0000000   0.0000000   0.0000000   0.0000000   0.0000000   0.0000000   0.0000000   0.0000000
 NMagM=    0.0000000   2.7928460   2.7928460   2.7928460   0.0000000   0.0000000   0.0000000   0.0000000   0.0000000   2.7928460
 AtZNuc=   6.0000000   1.0000000   1.0000000   1.0000000   8.0000000   6.0000000   6.0000000   6.0000000   6.0000000   1.0000000

  Atom        31          32          33          34          35          36          37          38          39          40
 IAtWgt=           1          12          12          12          12           1           1           1          14          16
 AtmWgt=   1.0078250  12.0000000  12.0000000  12.0000000  12.0000000   1.0078250   1.0078250   1.0078250  14.0030740  15.9949146
 NucSpn=           1           0           0           0           0           1           1           1           2           0
 AtZEff=   1.0000000   3.6000000   3.6000000   3.6000000   3.6000000   1.0000000   1.0000000   1.0000000   4.5500000   5.6000000
 NQMom=    0.0000000   0.0000000   0.0000000   0.0000000   0.0000000   0.0000000   0.0000000   0.0000000   2.0440000   0.0000000
 NMagM=    2.7928460   0.0000000   0.0000000   0.0000000   0.0000000   2.7928460   2.7928460   2.7928460   0.4037610   0.0000000
 AtZNuc=   1.0000000   6.0000000   6.0000000   6.0000000   6.0000000   1.0000000   1.0000000   1.0000000   7.0000000   8.0000000

  Atom        41          42
 IAtWgt=          16           1
 AtmWgt=  15.9949146   1.0078250
 NucSpn=           0           1
 AtZEff=   5.6000000   1.0000000
 NQMom=    0.0000000   0.0000000
 NMagM=    0.0000000   2.7928460
 AtZNuc=   8.0000000   1.0000000
 Leave Link  101 at Tue May  7 19:45:08 2024, MaxMem=  2684354560 cpu:               7.3 elap:               0.3
 (Enter /s/ls4/groups/g0130/bin/g16/l103.exe)

 GradGradGradGradGradGradGradGradGradGradGradGradGradGradGradGradGradGrad
 Berny optimization.
 Initialization pass.
                           ----------------------------
                           !    Initial Parameters    !
                           ! (Angstroms and Degrees)  !
 --------------------------                            --------------------------
 ! Name  Definition              Value          Derivative Info.                !
 --------------------------------------------------------------------------------
 ! R1    R(1,2)                  1.3929         estimate D2E/DX2                !
 ! R2    R(1,6)                  1.3833         estimate D2E/DX2                !
 ! R3    R(1,9)                  1.0822         estimate D2E/DX2                !
 ! R4    R(2,3)                  1.3814         estimate D2E/DX2                !
 ! R5    R(2,7)                  1.0809         estimate D2E/DX2                !
 ! R6    R(3,4)                  1.3928         estimate D2E/DX2                !
 ! R7    R(3,11)                 1.3939         estimate D2E/DX2                !
 ! R8    R(4,5)                  1.373          estimate D2E/DX2                !
 ! R9    R(4,13)                 1.511          estimate D2E/DX2                !
 ! R10   R(5,6)                  1.3951         estimate D2E/DX2                !
 ! R11   R(5,10)                 1.0829         estimate D2E/DX2                !
 ! R12   R(6,8)                  1.0814         estimate D2E/DX2                !
 ! R13   R(11,12)                1.4363         estimate D2E/DX2                !
 ! R14   R(11,14)                1.4435         estimate D2E/DX2                !
 ! R15   R(12,13)                1.5684         estimate D2E/DX2                !
 ! R16   R(12,25)                1.4637         estimate D2E/DX2                !
 ! R17   R(12,27)                1.4931         estimate D2E/DX2                !
 ! R18   R(13,17)                1.5329         estimate D2E/DX2                !
 ! R19   R(13,21)                1.5205         estimate D2E/DX2                !
 ! R20   R(14,15)                1.0879         estimate D2E/DX2                !
 ! R21   R(14,16)                1.0946         estimate D2E/DX2                !
 ! R22   R(14,42)                1.0887         estimate D2E/DX2                !
 ! R23   R(17,18)                1.0896         estimate D2E/DX2                !
 ! R24   R(17,19)                1.0892         estimate D2E/DX2                !
 ! R25   R(17,20)                1.0902         estimate D2E/DX2                !
 ! R26   R(21,22)                1.087          estimate D2E/DX2                !
 ! R27   R(21,23)                1.0913         estimate D2E/DX2                !
 ! R28   R(21,24)                1.0898         estimate D2E/DX2                !
 ! R29   R(25,26)                1.335          estimate D2E/DX2                !
 ! R30   R(26,29)                1.3993         estimate D2E/DX2                !
 ! R31   R(26,33)                1.3905         estimate D2E/DX2                !
 ! R32   R(27,28)                1.3249         estimate D2E/DX2                !
 ! R33   R(27,30)                1.0799         estimate D2E/DX2                !
 ! R34   R(28,29)                1.4513         estimate D2E/DX2                !
 ! R35   R(28,31)                1.0822         estimate D2E/DX2                !
 ! R36   R(29,32)                1.3816         estimate D2E/DX2                !
 ! R37   R(32,35)                1.3824         estimate D2E/DX2                !
 ! R38   R(32,36)                1.0798         estimate D2E/DX2                !
 ! R39   R(33,34)                1.3761         estimate D2E/DX2                !
 ! R40   R(33,37)                1.0805         estimate D2E/DX2                !
 ! R41   R(34,35)                1.3864         estimate D2E/DX2                !
 ! R42   R(34,38)                1.0787         estimate D2E/DX2                !
 ! R43   R(35,39)                1.453          estimate D2E/DX2                !
 ! R44   R(39,40)                1.2171         estimate D2E/DX2                !
 ! R45   R(39,41)                1.2167         estimate D2E/DX2                !
 ! A1    A(2,1,6)              121.2774         estimate D2E/DX2                !
 ! A2    A(2,1,9)              119.084          estimate D2E/DX2                !
 ! A3    A(6,1,9)              119.636          estimate D2E/DX2                !
 ! A4    A(1,2,3)              117.8939         estimate D2E/DX2                !
 ! A5    A(1,2,7)              120.5443         estimate D2E/DX2                !
 ! A6    A(3,2,7)              121.5599         estimate D2E/DX2                !
 ! A7    A(2,3,4)              121.2385         estimate D2E/DX2                !
 ! A8    A(2,3,11)             128.6151         estimate D2E/DX2                !
 ! A9    A(4,3,11)             110.1454         estimate D2E/DX2                !
 ! A10   A(3,4,5)              120.4314         estimate D2E/DX2                !
 ! A11   A(3,4,13)             108.623          estimate D2E/DX2                !
 ! A12   A(5,4,13)             130.8963         estimate D2E/DX2                !
 ! A13   A(4,5,6)              119.1274         estimate D2E/DX2                !
 ! A14   A(4,5,10)             120.7078         estimate D2E/DX2                !
 ! A15   A(6,5,10)             120.1641         estimate D2E/DX2                !
 ! A16   A(1,6,5)              120.0299         estimate D2E/DX2                !
 ! A17   A(1,6,8)              120.0172         estimate D2E/DX2                !
 ! A18   A(5,6,8)              119.9523         estimate D2E/DX2                !
 ! A19   A(3,11,12)            108.2613         estimate D2E/DX2                !
 ! A20   A(3,11,14)            120.8116         estimate D2E/DX2                !
 ! A21   A(12,11,14)           119.5999         estimate D2E/DX2                !
 ! A22   A(11,12,13)           103.3698         estimate D2E/DX2                !
 ! A23   A(11,12,25)           106.1577         estimate D2E/DX2                !
 ! A24   A(11,12,27)           112.7932         estimate D2E/DX2                !
 ! A25   A(13,12,25)           107.5515         estimate D2E/DX2                !
 ! A26   A(13,12,27)           115.013          estimate D2E/DX2                !
 ! A27   A(25,12,27)           111.2745         estimate D2E/DX2                !
 ! A28   A(4,13,12)            100.2559         estimate D2E/DX2                !
 ! A29   A(4,13,17)            108.861          estimate D2E/DX2                !
 ! A30   A(4,13,21)            114.656          estimate D2E/DX2                !
 ! A31   A(12,13,17)           110.5627         estimate D2E/DX2                !
 ! A32   A(12,13,21)           112.5617         estimate D2E/DX2                !
 ! A33   A(17,13,21)           109.6048         estimate D2E/DX2                !
 ! A34   A(11,14,15)           109.2888         estimate D2E/DX2                !
 ! A35   A(11,14,16)           112.3282         estimate D2E/DX2                !
 ! A36   A(11,14,42)           109.7497         estimate D2E/DX2                !
 ! A37   A(15,14,16)           108.6627         estimate D2E/DX2                !
 ! A38   A(15,14,42)           107.9497         estimate D2E/DX2                !
 ! A39   A(16,14,42)           108.7577         estimate D2E/DX2                !
 ! A40   A(13,17,18)           111.5045         estimate D2E/DX2                !
 ! A41   A(13,17,19)           109.058          estimate D2E/DX2                !
 ! A42   A(13,17,20)           111.2516         estimate D2E/DX2                !
 ! A43   A(18,17,19)           108.0115         estimate D2E/DX2                !
 ! A44   A(18,17,20)           108.7881         estimate D2E/DX2                !
 ! A45   A(19,17,20)           108.1148         estimate D2E/DX2                !
 ! A46   A(13,21,22)           111.8816         estimate D2E/DX2                !
 ! A47   A(13,21,23)           110.7648         estimate D2E/DX2                !
 ! A48   A(13,21,24)           109.6346         estimate D2E/DX2                !
 ! A49   A(22,21,23)           108.7758         estimate D2E/DX2                !
 ! A50   A(22,21,24)           108.2029         estimate D2E/DX2                !
 ! A51   A(23,21,24)           107.4455         estimate D2E/DX2                !
 ! A52   A(12,25,26)           123.3849         estimate D2E/DX2                !
 ! A53   A(25,26,29)           121.7027         estimate D2E/DX2                !
 ! A54   A(25,26,33)           117.445          estimate D2E/DX2                !
 ! A55   A(29,26,33)           120.8385         estimate D2E/DX2                !
 ! A56   A(12,27,28)           123.1203         estimate D2E/DX2                !
 ! A57   A(12,27,30)           115.6495         estimate D2E/DX2                !
 ! A58   A(28,27,30)           121.2193         estimate D2E/DX2                !
 ! A59   A(27,28,29)           120.8354         estimate D2E/DX2                !
 ! A60   A(27,28,31)           120.7567         estimate D2E/DX2                !
 ! A61   A(29,28,31)           118.3986         estimate D2E/DX2                !
 ! A62   A(26,29,28)           117.4673         estimate D2E/DX2                !
 ! A63   A(26,29,32)           119.0206         estimate D2E/DX2                !
 ! A64   A(28,29,32)           123.4828         estimate D2E/DX2                !
 ! A65   A(29,32,35)           119.5347         estimate D2E/DX2                !
 ! A66   A(29,32,36)           120.5164         estimate D2E/DX2                !
 ! A67   A(35,32,36)           119.9482         estimate D2E/DX2                !
 ! A68   A(26,33,34)           119.7848         estimate D2E/DX2                !
 ! A69   A(26,33,37)           119.015          estimate D2E/DX2                !
 ! A70   A(34,33,37)           121.1982         estimate D2E/DX2                !
 ! A71   A(33,34,35)           119.1385         estimate D2E/DX2                !
 ! A72   A(33,34,38)           121.0481         estimate D2E/DX2                !
 ! A73   A(35,34,38)           119.813          estimate D2E/DX2                !
 ! A74   A(32,35,34)           121.6733         estimate D2E/DX2                !
 ! A75   A(32,35,39)           119.1062         estimate D2E/DX2                !
 ! A76   A(34,35,39)           119.2199         estimate D2E/DX2                !
 ! A77   A(35,39,40)           118.2244         estimate D2E/DX2                !
 ! A78   A(35,39,41)           118.214          estimate D2E/DX2                !
 ! A79   A(40,39,41)           123.5616         estimate D2E/DX2                !
 ! D1    D(6,1,2,3)              0.3846         estimate D2E/DX2                !
 ! D2    D(6,1,2,7)           -179.1293         estimate D2E/DX2                !
 ! D3    D(9,1,2,3)            179.8012         estimate D2E/DX2                !
 ! D4    D(9,1,2,7)              0.2873         estimate D2E/DX2                !
 ! D5    D(2,1,6,5)             -0.194          estimate D2E/DX2                !
 ! D6    D(2,1,6,8)            179.5075         estimate D2E/DX2                !
 ! D7    D(9,1,6,5)           -179.6074         estimate D2E/DX2                !
 ! D8    D(9,1,6,8)              0.0941         estimate D2E/DX2                !
 ! D9    D(1,2,3,4)             -0.4451         estimate D2E/DX2                !
 ! D10   D(1,2,3,11)           179.1482         estimate D2E/DX2                !
 ! D11   D(7,2,3,4)            179.0636         estimate D2E/DX2                !
 ! D12   D(7,2,3,11)            -1.343          estimate D2E/DX2                !
 ! D13   D(2,3,4,5)              0.3183         estimate D2E/DX2                !
 ! D14   D(2,3,4,13)           178.0343         estimate D2E/DX2                !
 ! D15   D(11,3,4,5)          -179.3433         estimate D2E/DX2                !
 ! D16   D(11,3,4,13)           -1.6272         estimate D2E/DX2                !
 ! D17   D(2,3,11,12)          161.8548         estimate D2E/DX2                !
 ! D18   D(2,3,11,14)           18.4944         estimate D2E/DX2                !
 ! D19   D(4,3,11,12)          -18.5156         estimate D2E/DX2                !
 ! D20   D(4,3,11,14)         -161.876          estimate D2E/DX2                !
 ! D21   D(3,4,5,6)             -0.113          estimate D2E/DX2                !
 ! D22   D(3,4,5,10)          -179.8231         estimate D2E/DX2                !
 ! D23   D(13,4,5,6)          -177.2493         estimate D2E/DX2                !
 ! D24   D(13,4,5,10)            3.0407         estimate D2E/DX2                !
 ! D25   D(3,4,13,12)           18.6976         estimate D2E/DX2                !
 ! D26   D(3,4,13,17)          -97.3425         estimate D2E/DX2                !
 ! D27   D(3,4,13,21)          139.4997         estimate D2E/DX2                !
 ! D28   D(5,4,13,12)         -163.9079         estimate D2E/DX2                !
 ! D29   D(5,4,13,17)           80.0521         estimate D2E/DX2                !
 ! D30   D(5,4,13,21)          -43.1058         estimate D2E/DX2                !
 ! D31   D(4,5,6,1)              0.053          estimate D2E/DX2                !
 ! D32   D(4,5,6,8)           -179.6487         estimate D2E/DX2                !
 ! D33   D(10,5,6,1)           179.7646         estimate D2E/DX2                !
 ! D34   D(10,5,6,8)             0.063          estimate D2E/DX2                !
 ! D35   D(3,11,12,13)          29.6209         estimate D2E/DX2                !
 ! D36   D(3,11,12,25)         -83.4314         estimate D2E/DX2                !
 ! D37   D(3,11,12,27)         154.4614         estimate D2E/DX2                !
 ! D38   D(14,11,12,13)        173.5011         estimate D2E/DX2                !
 ! D39   D(14,11,12,25)         60.4487         estimate D2E/DX2                !
 ! D40   D(14,11,12,27)        -61.6585         estimate D2E/DX2                !
 ! D41   D(3,11,14,15)        -178.3021         estimate D2E/DX2                !
 ! D42   D(3,11,14,16)          61.0178         estimate D2E/DX2                !
 ! D43   D(3,11,14,42)         -60.1009         estimate D2E/DX2                !
 ! D44   D(12,11,14,15)         42.3742         estimate D2E/DX2                !
 ! D45   D(12,11,14,16)        -78.3059         estimate D2E/DX2                !
 ! D46   D(12,11,14,42)        160.5754         estimate D2E/DX2                !
 ! D47   D(11,12,13,4)         -28.5428         estimate D2E/DX2                !
 ! D48   D(11,12,13,17)         86.213          estimate D2E/DX2                !
 ! D49   D(11,12,13,21)       -150.836          estimate D2E/DX2                !
 ! D50   D(25,12,13,4)          83.4923         estimate D2E/DX2                !
 ! D51   D(25,12,13,17)       -161.7519         estimate D2E/DX2                !
 ! D52   D(25,12,13,21)        -38.8009         estimate D2E/DX2                !
 ! D53   D(27,12,13,4)        -151.9308         estimate D2E/DX2                !
 ! D54   D(27,12,13,17)        -37.1749         estimate D2E/DX2                !
 ! D55   D(27,12,13,21)         85.7761         estimate D2E/DX2                !
 ! D56   D(11,12,25,26)       -140.578          estimate D2E/DX2                !
 ! D57   D(13,12,25,26)        109.293          estimate D2E/DX2                !
 ! D58   D(27,12,25,26)        -17.5092         estimate D2E/DX2                !
 ! D59   D(11,12,27,28)        132.4899         estimate D2E/DX2                !
 ! D60   D(11,12,27,30)        -48.7            estimate D2E/DX2                !
 ! D61   D(13,12,27,28)       -109.2908         estimate D2E/DX2                !
 ! D62   D(13,12,27,30)         69.5194         estimate D2E/DX2                !
 ! D63   D(25,12,27,28)         13.3101         estimate D2E/DX2                !
 ! D64   D(25,12,27,30)       -167.8797         estimate D2E/DX2                !
 ! D65   D(4,13,17,18)          56.6981         estimate D2E/DX2                !
 ! D66   D(4,13,17,19)         -62.4932         estimate D2E/DX2                !
 ! D67   D(4,13,17,20)         178.3431         estimate D2E/DX2                !
 ! D68   D(12,13,17,18)        -52.5162         estimate D2E/DX2                !
 ! D69   D(12,13,17,19)       -171.7075         estimate D2E/DX2                !
 ! D70   D(12,13,17,20)         69.1288         estimate D2E/DX2                !
 ! D71   D(21,13,17,18)       -177.1701         estimate D2E/DX2                !
 ! D72   D(21,13,17,19)         63.6386         estimate D2E/DX2                !
 ! D73   D(21,13,17,20)        -55.5251         estimate D2E/DX2                !
 ! D74   D(4,13,21,22)         -51.5045         estimate D2E/DX2                !
 ! D75   D(4,13,21,23)        -173.0537         estimate D2E/DX2                !
 ! D76   D(4,13,21,24)          68.542          estimate D2E/DX2                !
 ! D77   D(12,13,21,22)         62.2521         estimate D2E/DX2                !
 ! D78   D(12,13,21,23)        -59.297          estimate D2E/DX2                !
 ! D79   D(12,13,21,24)       -177.7013         estimate D2E/DX2                !
 ! D80   D(17,13,21,22)       -174.262          estimate D2E/DX2                !
 ! D81   D(17,13,21,23)         64.1888         estimate D2E/DX2                !
 ! D82   D(17,13,21,24)        -54.2155         estimate D2E/DX2                !
 ! D83   D(12,25,26,29)         10.9998         estimate D2E/DX2                !
 ! D84   D(12,25,26,33)       -170.3426         estimate D2E/DX2                !
 ! D85   D(25,26,29,28)          1.4014         estimate D2E/DX2                !
 ! D86   D(25,26,29,32)        179.5005         estimate D2E/DX2                !
 ! D87   D(33,26,29,28)       -177.211          estimate D2E/DX2                !
 ! D88   D(33,26,29,32)          0.888          estimate D2E/DX2                !
 ! D89   D(25,26,33,34)       -179.7494         estimate D2E/DX2                !
 ! D90   D(25,26,33,37)          0.7681         estimate D2E/DX2                !
 ! D91   D(29,26,33,34)         -1.0796         estimate D2E/DX2                !
 ! D92   D(29,26,33,37)        179.4379         estimate D2E/DX2                !
 ! D93   D(12,27,28,29)         -2.7661         estimate D2E/DX2                !
 ! D94   D(12,27,28,31)        178.3588         estimate D2E/DX2                !
 ! D95   D(30,27,28,29)        178.4881         estimate D2E/DX2                !
 ! D96   D(30,27,28,31)         -0.387          estimate D2E/DX2                !
 ! D97   D(27,28,29,26)         -5.3948         estimate D2E/DX2                !
 ! D98   D(27,28,29,32)        176.5983         estimate D2E/DX2                !
 ! D99   D(31,28,29,26)        173.5063         estimate D2E/DX2                !
 ! D100  D(31,28,29,32)         -4.5007         estimate D2E/DX2                !
 ! D101  D(26,29,32,35)         -0.0482         estimate D2E/DX2                !
 ! D102  D(26,29,32,36)       -179.7373         estimate D2E/DX2                !
 ! D103  D(28,29,32,35)        177.9295         estimate D2E/DX2                !
 ! D104  D(28,29,32,36)         -1.7596         estimate D2E/DX2                !
 ! D105  D(29,32,35,34)         -0.6097         estimate D2E/DX2                !
 ! D106  D(29,32,35,39)        179.6794         estimate D2E/DX2                !
 ! D107  D(36,32,35,34)        179.0812         estimate D2E/DX2                !
 ! D108  D(36,32,35,39)         -0.6297         estimate D2E/DX2                !
 ! D109  D(26,33,34,35)          0.4204         estimate D2E/DX2                !
 ! D110  D(26,33,34,38)       -179.3516         estimate D2E/DX2                !
 ! D111  D(37,33,34,35)        179.8914         estimate D2E/DX2                !
 ! D112  D(37,33,34,38)          0.1194         estimate D2E/DX2                !
 ! D113  D(33,34,35,32)          0.423          estimate D2E/DX2                !
 ! D114  D(33,34,35,39)       -179.8663         estimate D2E/DX2                !
 ! D115  D(38,34,35,32)       -179.8021         estimate D2E/DX2                !
 ! D116  D(38,34,35,39)         -0.0915         estimate D2E/DX2                !
 ! D117  D(32,35,39,40)         -0.2753         estimate D2E/DX2                !
 ! D118  D(32,35,39,41)        179.7291         estimate D2E/DX2                !
 ! D119  D(34,35,39,40)       -179.9934         estimate D2E/DX2                !
 ! D120  D(34,35,39,41)          0.011          estimate D2E/DX2                !
 --------------------------------------------------------------------------------
 Trust Radius=3.00D-01 FncErr=1.00D-07 GrdErr=1.00D-06 EigMax=2.50D+02 EigMin=1.00D-04
 Number of steps in this run=    252 maximum allowed number of steps=    252.
 GradGradGradGradGradGradGradGradGradGradGradGradGradGradGradGradGradGrad

 Leave Link  103 at Tue May  7 19:45:08 2024, MaxMem=  2684354560 cpu:               0.6 elap:               0.1
 (Enter /s/ls4/groups/g0130/bin/g16/l202.exe)
                          Input orientation:                          
 ---------------------------------------------------------------------
 Center     Atomic      Atomic             Coordinates (Angstroms)
 Number     Number       Type             X           Y           Z
 ---------------------------------------------------------------------
      1          6           0       -5.777698    1.754016   -1.464144
      2          6           0       -5.031476    1.055324   -0.518061
      3          6           0       -3.922447    1.679344    0.019529
      4          6           0       -3.553101    2.962747   -0.376016
      5          6           0       -4.293582    3.642278   -1.311473
      6          6           0       -5.419344    3.029403   -1.862259
      7          1           0       -5.314270    0.053818   -0.225894
      8          1           0       -6.008935    3.550197   -2.604252
      9          1           0       -6.648504    1.282163   -1.900225
     10          1           0       -4.008881    4.639157   -1.624354
     11          7           0       -3.035931    1.199999    0.982460
     12          6           0       -1.834004    1.983600    0.917470
     13          6           0       -2.339601    3.382645    0.420400
     14          6           0       -2.952019   -0.211500    1.272860
     15          1           0       -2.228100   -0.372209    2.068942
     16          1           0       -2.648858   -0.798308    0.400055
     17          6           0       -2.797061    4.241700    1.604700
     18          1           0       -3.517584    3.712296    2.227368
     19          1           0       -3.277356    5.142914    1.225816
     20          1           0       -1.952003    4.542818    2.224178
     21          6           0       -1.285826    4.133889   -0.377849
     22          1           0       -1.007217    3.600900   -1.283357
     23          1           0       -0.389628    4.298203    0.222861
     24          1           0       -1.671469    5.112281   -0.663707
     25          8           0       -1.025001    1.400447   -0.153942
     26          6           0        0.301014    1.263286   -0.081653
     27          6           0       -1.086899    2.005071    2.210023
     28          6           0        0.217890    1.791429    2.295655
     29          6           0        0.996418    1.460284    1.116504
     30          1           0       -1.676317    2.228106    3.086992
     31          1           0        0.725533    1.842027    3.250114
     32          6           0        2.367836    1.293510    1.130710
     33          6           0        0.970539    0.887022   -1.240839
     34          6           0        2.337095    0.726600   -1.219457
     35          6           0        3.022911    0.936094   -0.032915
     36          1           0        2.927980    1.435258    2.042866
     37          1           0        0.403161    0.734004   -2.147542
     38          1           0        2.878248    0.445346   -2.109229
     39          7           0        4.466190    0.770054   -0.009037
     40          8           0        5.049928    0.958372    1.042189
     41          8           0        5.025581    0.450359   -1.041161
     42          1           0       -3.918294   -0.573792    1.619861
 ---------------------------------------------------------------------
                    Distance matrix (angstroms):
                    1          2          3          4          5
     1  C    0.000000
     2  C    1.392871   0.000000
     3  C    2.376724   1.381430   0.000000
     4  C    2.755701   2.417443   1.392837   0.000000
     5  C    2.406542   2.804697   2.400504   1.373010   0.000000
     6  C    1.383302   2.419566   2.757623   2.386677   1.395106
     7  H    2.153764   1.080902   2.154005   3.403840   3.885529
     8  H    2.139997   3.395882   3.838978   3.367678   2.149928
     9  H    1.082180   2.139302   3.357766   3.837850   3.385621
    10  H    3.387982   3.887601   3.386785   2.139260   1.082920
    11  N    3.716193   2.500939   1.393886   2.284776   3.578903
    12  C    4.612756   3.625779   2.293571   2.363711   3.710650
    13  C    4.245521   3.680126   2.359520   1.511018   2.623897
    14  C    4.397602   3.022645   2.467359   3.627111   4.830132
    15  H    5.440880   4.073003   3.358538   4.342278   5.639994
    16  H    4.447385   3.155274   2.811688   3.945310   5.035201
    17  C    4.948795   4.433026   3.216353   2.475995   3.332108
    18  H    4.750815   4.109593   3.028426   2.709372   3.623600
    19  H    4.997221   4.777702   3.723921   2.719380   3.118086
    20  H    6.001423   5.400523   4.116141   3.438190   4.335297
    21  C    5.198149   4.850476   3.624151   2.551884   3.187465
    22  H    5.118706   4.822892   3.726722   2.777054   3.286746
    23  H    6.192752   5.710690   4.402338   3.485636   4.245619
    24  H    5.364677   5.269702   4.161583   2.871202   3.075059
    25  O    4.942648   4.037763   2.916002   2.980165   4.129081
    26  C    6.253226   5.354357   4.245111   4.222442   5.318117
    27  C    5.963734   4.889187   3.597874   3.699580   5.036288
    28  C    7.077045   6.001224   4.726066   4.767618   6.065509
    29  C    7.254976   6.258698   5.044460   5.018279   6.216130
    30  H    6.144829   5.062501   3.841298   4.006799   5.310033
    31  H    8.032683   6.925403   5.662762   5.719400   7.017158
    32  C    8.561253   7.584523   6.399316   6.333566   7.473651
    33  C    6.807368   6.047720   5.114452   5.051720   5.942003
    34  C    8.183234   7.409173   6.451719   6.356583   7.243999
    35  C    8.953666   8.069866   6.985211   6.889773   7.905012
    36  H    9.390929   8.369924   7.147155   7.084392   8.262777
    37  H    6.301625   5.682757   4.929579   4.874178   5.587170
    38  H    8.778050   8.091206   7.232138   7.120645   7.892524
    39  N   10.393400   9.515573   8.437823   8.321754   9.310189
    40  O   11.142362  10.201886   9.059203   8.946559  10.002213
    41  O   10.889871  10.088806   9.094101   8.963721   9.854350
    42  H    4.288025   2.909278   2.763639   4.077253   5.148670
                    6          7          8          9         10
     6  C    0.000000
     7  H    3.397475   0.000000
     8  H    1.081387   4.285302   0.000000
     9  H    2.136614   2.468278   2.459407   0.000000
    10  H    2.153442   4.968407   2.479163   4.279383   0.000000
    11  N    4.137609   2.822177   5.217920   4.622478   4.423790
    12  C    4.655670   4.140483   5.682148   5.622351   4.271176
    13  C    3.849692   4.510815   4.758214   5.325783   2.923411
    14  C    5.140050   2.810141   6.207020   5.095439   5.748015
    15  H    6.099946   3.869395   7.177655   6.166944   6.474983
    16  H    5.238800   2.867464   6.263024   5.061305   5.959355
    17  C    4.512852   5.217832   5.339437   5.989738   3.471781
    18  H    4.561588   4.757210   5.438535   5.722345   3.992018
    19  H    4.311757   5.670572   4.966658   6.003512   2.985358
    20  H    5.568828   6.120361   6.384178   7.049801   4.364771
    21  C    4.528724   5.735716   5.254078   6.261652   3.037121
    22  H    4.486491   5.678972   5.173443   6.130349   3.194408
    23  H    5.590673   6.516770   6.334722   7.264814   4.077677
    24  H    4.452131   6.248978   5.001943   6.400754   2.571027
    25  O    4.988196   4.496267   5.955254   5.889591   4.642725
    26  C    6.245976   5.745871   7.170001   7.183547   5.687848
    27  C    6.033475   5.254688   7.056281   6.953286   5.493527
    28  C    7.113314   6.323156   8.116385   8.063009   6.429745
    29  C    7.245493   6.603406   8.202849   8.220536   6.532270
    30  H    6.256789   5.379354   7.273910   7.105616   5.783667
    31  H    8.081196   7.194411   9.085401   9.011984   7.348404
    32  C    8.521230   7.898858   9.445256   9.512154   7.710139
    33  C    6.768055   6.420527   7.593712   7.657724   6.246617
    34  C    8.116554   7.744882   8.918889   9.028459   7.466154
    35  C    8.888201   8.385955   9.747797   9.856109   8.105026
    36  H    9.352492   8.659696  10.292576  10.357627   8.475465
    37  H    6.265126   6.069959   7.018155   7.077261   5.915240
    38  H    8.694158   8.415319   9.426938   9.565717   8.078100
    39  N   10.308388   9.809048  11.144172  11.286065   9.455476
    40  O   11.060318  10.480594  11.929482  12.067143  10.135119
    41  O   10.789909  10.379520  11.567748  11.735167   9.975352
    42  H    5.230805   2.397802   6.262683   4.825932   6.140681
                   11         12         13         14         15
    11  N    0.000000
    12  C    1.436275   0.000000
    13  C    2.358969   1.568450   0.000000
    14  C    1.443503   2.488920   3.744279   0.000000
    15  H    2.074818   2.651611   4.102323   1.087949   0.000000
    16  H    2.117133   2.944609   4.192425   1.094550   1.773072
    17  C    3.113870   2.549270   1.532909   4.468234   4.671980
    18  H    2.844895   2.745663   2.182074   4.077637   4.286147
    19  H    3.957789   3.487063   2.150959   5.364495   5.677005
    20  H    3.727091   2.875935   2.179415   4.950613   4.925223
    21  C    3.677094   2.569453   1.520529   4.937959   5.213404
    22  H    3.874782   2.853572   2.173860   4.985066   5.339856
    23  H    4.144729   2.815331   2.163253   5.292047   5.347966
    24  H    4.458428   3.509299   2.147865   5.807989   6.152791
    25  O    2.318497   1.463720   2.446866   2.889209   3.087227
    26  C    3.503076   2.464833   3.422950   3.819937   3.700854
    27  C    2.440036   1.493090   2.582581   3.044689   2.640777
    28  C    3.558317   2.479232   3.548142   3.886663   3.273468
    29  C    4.042964   2.885266   3.912679   4.290625   3.829189
    30  H    2.708249   2.188943   2.980540   3.296994   2.846495
    31  H    4.438814   3.465905   4.447003   4.653052   3.875817
    32  C    5.406609   4.263467   5.198941   5.530471   4.977703
    33  C    4.592692   3.704895   4.465969   4.786637   4.771960
    34  C    5.825973   4.852275   5.622739   5.921689   5.732535
    35  C    6.149000   5.058668   5.911653   6.222685   5.805393
    36  H    6.062016   4.923787   5.845693   6.154600   5.463769
    37  H    4.673481   3.995084   4.596996   4.883683   5.091756
    38  H    6.716068   5.807965   6.500208   6.772148   6.648331
    39  N    7.579561   6.482557   7.302660   7.591872   7.101851
    40  O    8.089689   6.960974   7.801850   8.090300   7.469562
    41  O    8.345357   7.296641   8.061041   8.332758   7.935065
    42  H    2.081148   3.373110   4.425424   1.088739   1.760416
                   16         17         18         19         20
    16  H    0.000000
    17  C    5.184092   0.000000
    18  H    4.943613   1.089558   0.000000
    19  H    6.031170   1.089231   1.762806   0.000000
    20  H    5.686885   1.090206   1.772236   1.764485   0.000000
    21  C    5.175863   2.495186   3.456247   2.748830   2.716903
    22  H    4.988175   3.457606   4.317353   3.718506   3.752683
    23  H    5.577629   2.776402   3.761043   3.171503   2.550710
    24  H    6.084566   2.677786   3.704917   2.479941   2.956834
    25  O    2.788969   3.782292   4.150693   4.580709   4.048368
    26  C    3.630972   4.616579   5.090277   5.437437   4.598725
    27  C    3.684377   2.879858   2.970379   3.951308   2.681188
    28  C    4.303287   3.946033   4.200972   4.959210   3.504809
    29  C    4.347709   4.729175   5.165442   5.642593   4.407056
    30  H    4.162290   2.740040   2.516354   3.810959   2.485627
    31  H    5.145943   4.568861   4.748469   5.569270   3.939037
    32  C    5.484230   5.965958   6.456884   6.833385   5.514951
    33  C    4.316585   5.791871   6.336710   6.499356   5.823439
    34  C    5.459661   6.833107   7.421068   7.550182   6.694662
    35  C    5.946813   6.890638   7.456156   7.679526   6.546197
    36  H    6.228063   6.390947   6.838438   7.274647   5.788267
    37  H    4.260639   6.051832   6.586525   6.660649   6.258258
    38  H    6.196135   7.772690   8.389619   8.430963   7.674570
    39  N    7.297330   8.210438   8.797667   8.978267   7.772657
    40  O    7.922725   8.524782   9.076950   9.321362   7.954395
    41  O    7.907800   9.086726   9.711292   9.802960   8.723379
    42  H    1.774768   4.944325   4.347435   5.766004   5.514635
                   21         22         23         24         25
    21  C    0.000000
    22  H    1.087035   0.000000
    23  H    1.091340   1.770971   0.000000
    24  H    1.089811   1.763369   1.758364   0.000000
    25  O    2.754971   2.473437   2.990429   3.802038   0.000000
    26  C    3.293349   2.935983   3.127368   4.363970   1.335048
    27  C    3.356861   3.841448   3.113431   4.272564   2.440846
    28  C    3.859521   4.193375   3.308998   4.832759   2.774557
    29  C    3.819671   3.788947   3.282301   4.860437   2.388252
    30  H    3.973614   4.629493   3.760866   4.731409   3.407768
    31  H    4.739230   5.162210   4.054706   5.635439   3.853175
    32  C    4.867519   4.747920   4.178034   5.841141   3.629477
    33  C    4.046984   3.358342   3.953306   5.016583   2.329621
    34  C    5.044152   4.410227   4.719284   5.967549   3.590694
    35  C    5.376810   4.990664   4.797355   6.314716   4.076256
    36  H    5.558653   5.589234   4.745038   6.480815   4.522525
    37  H    4.188521   3.309845   4.353256   5.067067   2.541306
    38  H    5.826022   5.073108   5.564365   6.676057   4.468861
    39  N    6.673611   6.292516   6.006711   7.546813   5.529156
    40  O    7.227876   7.005721   6.435412   8.083454   6.207328
    41  O    7.337726   6.810229   6.762259   8.168627   6.188649
    42  H    5.751781   5.859274   6.175712   6.526433   3.926211
                   26         27         28         29         30
    26  C    0.000000
    27  C    2.779986   0.000000
    28  C    2.436686   1.324934   0.000000
    29  C    1.399277   2.415116   1.451261   0.000000
    30  H    3.857593   1.079923   2.098790   3.408209   0.000000
    31  H    3.408201   2.096016   1.082245   2.184353   2.438145
    32  C    2.396350   3.688689   2.495453   1.381594   4.588647
    33  C    1.390522   4.170315   3.727093   2.426183   5.247330
    34  C    2.393378   5.011941   4.240390   2.791491   6.075154
    35  C    2.741926   4.802502   3.744594   2.388015   5.786697
    36  H    3.382914   4.058556   2.745058   2.142360   4.787312
    37  H    2.135057   4.777474   4.571047   3.396090   5.827256
    38  H    3.379679   6.067213   5.319065   3.869979   7.136036
    39  N    4.194907   6.106250   4.939926   3.712489   7.031479
    40  O    4.889599   6.334040   5.061003   4.085142   7.143936
    41  O    4.889074   7.095755   6.003891   4.680772   8.069540
    42  H    4.906380   3.875000   4.812378   5.342773   3.876799
                   31         32         33         34         35
    31  H    0.000000
    32  C    2.736769   0.000000
    33  C    4.597904   2.782429   0.000000
    34  C    4.880408   2.417771   1.376106   0.000000
    35  C    4.108156   1.382351   2.381957   1.386403   0.000000
    36  H    2.544342   1.079761   3.861975   3.390294   2.137065
    37  H    5.519631   3.862632   1.080483   2.145110   3.372770
    38  H    5.942008   3.387788   2.142086   1.078724   2.138420
    39  N    5.075796   2.444610   3.708178   2.449500   1.452994
    40  O    4.935197   2.704399   4.675331   3.539523   2.294590
    41  O    6.232351   3.534337   4.083370   2.708515   2.294163
    42  H    5.482613   6.575828   5.849638   6.991612   7.293268
                   36         37         38         39         40
    36  H    0.000000
    37  H    4.942265   0.000000
    38  H    4.268758   2.492157   0.000000
    39  N    2.649320   4.591590   2.652885   0.000000
    40  O    2.394043   5.640670   3.861454   1.217083   0.000000
    41  O    3.857614   4.761439   2.398298   1.216718   2.144532
    42  H    7.147494   5.880359   7.819063   8.646317   9.116482
                   41         42
    41  O    0.000000
    42  H    9.387376   0.000000
 Stoichiometry    C19H18N2O3
 Framework group  C1[X(C19H18N2O3)]
 Deg. of freedom   120
 Full point group                 C1      NOp   1
 RotChk:  IX=2 Diff= 5.30D-15
 Largest Abelian subgroup         C1      NOp   1
 Largest concise Abelian subgroup C1      NOp   1
                         Standard orientation:                         
 ---------------------------------------------------------------------
 Center     Atomic      Atomic             Coordinates (Angstroms)
 Number     Number       Type             X           Y           Z
 ---------------------------------------------------------------------
      1          6           0        4.972379   -1.535184   -0.596995
      2          6           0        4.051068   -0.821958   -1.360268
      3          6           0        3.049733   -0.141399   -0.695050
      4          6           0        2.955062   -0.172435    0.694220
      5          6           0        3.866469   -0.880734    1.437729
      6          6           0        4.887118   -1.570814    0.783218
      7          1           0        4.120632   -0.813641   -2.438897
      8          1           0        5.608790   -2.137604    1.355352
      9          1           0        5.762909   -2.078019   -1.098498
     10          1           0        3.795420   -0.910252    2.517913
     11          7           0        2.031474    0.647215   -1.228113
     12          6           0        1.006040    0.791415   -0.232836
     13          6           0        1.796903    0.700362    1.118563
     14          6           0        1.664086    0.538956   -2.619877
     15          1           0        0.875712    1.255569   -2.840252
     16          1           0        1.308956   -0.463311   -2.879462
     17          6           0        2.335862    2.077860    1.520849
     18          1           0        2.903726    2.536393    0.711889
     19          1           0        3.000396    1.963813    2.376308
     20          1           0        1.527040    2.750430    1.807219
     21          6           0        0.955185    0.131545    2.249919
     22          1           0        0.636305   -0.887250    2.044937
     23          1           0        0.071467    0.748215    2.422497
     24          1           0        1.535920    0.127476    3.172100
     25          8           0        0.167977   -0.404260   -0.335247
     26          6           0       -1.161899   -0.381307   -0.220119
     27          6           0        0.199226    2.035253   -0.409581
     28          6           0       -1.125155    2.050215   -0.374351
     29          6           0       -1.879036    0.820224   -0.216414
     30          1           0        0.765701    2.943731   -0.551030
     31          1           0       -1.671186    2.978524   -0.480867
     32          6           0       -3.255481    0.778896   -0.104644
     33          6           0       -1.818726   -1.603731   -0.131744
     34          6           0       -3.189639   -1.636384   -0.016870
     35          6           0       -3.894304   -0.442533   -0.000186
     36          1           0       -3.833114    1.691158   -0.103467
     37          1           0       -1.236471   -2.513790   -0.146444
     38          1           0       -3.719067   -2.572809    0.063511
     39          7           0       -5.341623   -0.474844    0.123985
     40          8           0       -5.942023    0.583764    0.136579
     41          8           0       -5.887538   -1.558825    0.209813
     42          1           0        2.521242    0.779863   -3.246456
 ---------------------------------------------------------------------
 Rotational constants (GHZ):           0.6254418           0.1270451           0.1242231
 Leave Link  202 at Tue May  7 19:45:08 2024, MaxMem=  2684354560 cpu:               0.5 elap:               0.0
 (Enter /s/ls4/groups/g0130/bin/g16/l301.exe)
 Standard basis: def2TZVP (5D, 7F)
 Ernie: Thresh=  0.10000D-02 Tol=  0.10000D-05 Strict=F.
 AO basis set in the form of general basis input (Overlap normalization):
      1 0
 S   6 1.00       0.000000000000
      0.1357534968D+05  0.6064550360D-03
      0.2035233368D+04  0.4697908888D-02
      0.4632256236D+03  0.2433247765D-01
      0.1312001960D+03  0.9739996831D-01
      0.4285301589D+02  0.3019558425D+00
      0.1558418577D+02  0.6623360914D+00
 S   2 1.00       0.000000000000
      0.6206713851D+01  0.6559530854D+00
      0.2576489653D+01  0.3758563329D+00
 S   1 1.00       0.000000000000
      0.5769633942D+00  0.1000000000D+01
 S   1 1.00       0.000000000000
      0.2297283136D+00  0.1000000000D+01
 S   1 1.00       0.000000000000
      0.9516444003D-01  0.1000000000D+01
 P   4 1.00       0.000000000000
      0.3469723224D+02  0.1132722000D-01
      0.7958262283D+01  0.7616965920D-01
      0.2378082688D+01  0.3019225220D+00
      0.8143320818D+00  0.7278502735D+00
 P   1 1.00       0.000000000000
      0.2888754725D+00  0.1000000000D+01
 P   1 1.00       0.000000000000
      0.1005682367D+00  0.1000000000D+01
 D   1 1.00       0.000000000000
      0.1097000000D+01  0.1000000000D+01
 D   1 1.00       0.000000000000
      0.3180000000D+00  0.1000000000D+01
 F   1 1.00       0.000000000000
      0.7610000000D+00  0.1000000000D+01
 ****
      2 0
 S   6 1.00       0.000000000000
      0.1357534968D+05  0.6064550360D-03
      0.2035233368D+04  0.4697908888D-02
      0.4632256236D+03  0.2433247765D-01
      0.1312001960D+03  0.9739996831D-01
      0.4285301589D+02  0.3019558425D+00
      0.1558418577D+02  0.6623360914D+00
 S   2 1.00       0.000000000000
      0.6206713851D+01  0.6559530854D+00
      0.2576489653D+01  0.3758563329D+00
 S   1 1.00       0.000000000000
      0.5769633942D+00  0.1000000000D+01
 S   1 1.00       0.000000000000
      0.2297283136D+00  0.1000000000D+01
 S   1 1.00       0.000000000000
      0.9516444003D-01  0.1000000000D+01
 P   4 1.00       0.000000000000
      0.3469723224D+02  0.1132722000D-01
      0.7958262283D+01  0.7616965920D-01
      0.2378082688D+01  0.3019225220D+00
      0.8143320818D+00  0.7278502735D+00
 P   1 1.00       0.000000000000
      0.2888754725D+00  0.1000000000D+01
 P   1 1.00       0.000000000000
      0.1005682367D+00  0.1000000000D+01
 D   1 1.00       0.000000000000
      0.1097000000D+01  0.1000000000D+01
 D   1 1.00       0.000000000000
      0.3180000000D+00  0.1000000000D+01
 F   1 1.00       0.000000000000
      0.7610000000D+00  0.1000000000D+01
 ****
      3 0
 S   6 1.00       0.000000000000
      0.1357534968D+05  0.6064550360D-03
      0.2035233368D+04  0.4697908888D-02
      0.4632256236D+03  0.2433247765D-01
      0.1312001960D+03  0.9739996831D-01
      0.4285301589D+02  0.3019558425D+00
      0.1558418577D+02  0.6623360914D+00
 S   2 1.00       0.000000000000
      0.6206713851D+01  0.6559530854D+00
      0.2576489653D+01  0.3758563329D+00
 S   1 1.00       0.000000000000
      0.5769633942D+00  0.1000000000D+01
 S   1 1.00       0.000000000000
      0.2297283136D+00  0.1000000000D+01
 S   1 1.00       0.000000000000
      0.9516444003D-01  0.1000000000D+01
 P   4 1.00       0.000000000000
      0.3469723224D+02  0.1132722000D-01
      0.7958262283D+01  0.7616965920D-01
      0.2378082688D+01  0.3019225220D+00
      0.8143320818D+00  0.7278502735D+00
 P   1 1.00       0.000000000000
      0.2888754725D+00  0.1000000000D+01
 P   1 1.00       0.000000000000
      0.1005682367D+00  0.1000000000D+01
 D   1 1.00       0.000000000000
      0.1097000000D+01  0.1000000000D+01
 D   1 1.00       0.000000000000
      0.3180000000D+00  0.1000000000D+01
 F   1 1.00       0.000000000000
      0.7610000000D+00  0.1000000000D+01
 ****
      4 0
 S   6 1.00       0.000000000000
      0.1357534968D+05  0.6064550360D-03
      0.2035233368D+04  0.4697908888D-02
      0.4632256236D+03  0.2433247765D-01
      0.1312001960D+03  0.9739996831D-01
      0.4285301589D+02  0.3019558425D+00
      0.1558418577D+02  0.6623360914D+00
 S   2 1.00       0.000000000000
      0.6206713851D+01  0.6559530854D+00
      0.2576489653D+01  0.3758563329D+00
 S   1 1.00       0.000000000000
      0.5769633942D+00  0.1000000000D+01
 S   1 1.00       0.000000000000
      0.2297283136D+00  0.1000000000D+01
 S   1 1.00       0.000000000000
      0.9516444003D-01  0.1000000000D+01
 P   4 1.00       0.000000000000
      0.3469723224D+02  0.1132722000D-01
      0.7958262283D+01  0.7616965920D-01
      0.2378082688D+01  0.3019225220D+00
      0.8143320818D+00  0.7278502735D+00
 P   1 1.00       0.000000000000
      0.2888754725D+00  0.1000000000D+01
 P   1 1.00       0.000000000000
      0.1005682367D+00  0.1000000000D+01
 D   1 1.00       0.000000000000
      0.1097000000D+01  0.1000000000D+01
 D   1 1.00       0.000000000000
      0.3180000000D+00  0.1000000000D+01
 F   1 1.00       0.000000000000
      0.7610000000D+00  0.1000000000D+01
 ****
      5 0
 S   6 1.00       0.000000000000
      0.1357534968D+05  0.6064550360D-03
      0.2035233368D+04  0.4697908888D-02
      0.4632256236D+03  0.2433247765D-01
      0.1312001960D+03  0.9739996831D-01
      0.4285301589D+02  0.3019558425D+00
      0.1558418577D+02  0.6623360914D+00
 S   2 1.00       0.000000000000
      0.6206713851D+01  0.6559530854D+00
      0.2576489653D+01  0.3758563329D+00
 S   1 1.00       0.000000000000
      0.5769633942D+00  0.1000000000D+01
 S   1 1.00       0.000000000000
      0.2297283136D+00  0.1000000000D+01
 S   1 1.00       0.000000000000
      0.9516444003D-01  0.1000000000D+01
 P   4 1.00       0.000000000000
      0.3469723224D+02  0.1132722000D-01
      0.7958262283D+01  0.7616965920D-01
      0.2378082688D+01  0.3019225220D+00
      0.8143320818D+00  0.7278502735D+00
 P   1 1.00       0.000000000000
      0.2888754725D+00  0.1000000000D+01
 P   1 1.00       0.000000000000
      0.1005682367D+00  0.1000000000D+01
 D   1 1.00       0.000000000000
      0.1097000000D+01  0.1000000000D+01
 D   1 1.00       0.000000000000
      0.3180000000D+00  0.1000000000D+01
 F   1 1.00       0.000000000000
      0.7610000000D+00  0.1000000000D+01
 ****
      6 0
 S   6 1.00       0.000000000000
      0.1357534968D+05  0.6064550360D-03
      0.2035233368D+04  0.4697908888D-02
      0.4632256236D+03  0.2433247765D-01
      0.1312001960D+03  0.9739996831D-01
      0.4285301589D+02  0.3019558425D+00
      0.1558418577D+02  0.6623360914D+00
 S   2 1.00       0.000000000000
      0.6206713851D+01  0.6559530854D+00
      0.2576489653D+01  0.3758563329D+00
 S   1 1.00       0.000000000000
      0.5769633942D+00  0.1000000000D+01
 S   1 1.00       0.000000000000
      0.2297283136D+00  0.1000000000D+01
 S   1 1.00       0.000000000000
      0.9516444003D-01  0.1000000000D+01
 P   4 1.00       0.000000000000
      0.3469723224D+02  0.1132722000D-01
      0.7958262283D+01  0.7616965920D-01
      0.2378082688D+01  0.3019225220D+00
      0.8143320818D+00  0.7278502735D+00
 P   1 1.00       0.000000000000
      0.2888754725D+00  0.1000000000D+01
 P   1 1.00       0.000000000000
      0.1005682367D+00  0.1000000000D+01
 D   1 1.00       0.000000000000
      0.1097000000D+01  0.1000000000D+01
 D   1 1.00       0.000000000000
      0.3180000000D+00  0.1000000000D+01
 F   1 1.00       0.000000000000
      0.7610000000D+00  0.1000000000D+01
 ****
      7 0
 S   3 1.00       0.000000000000
      0.3406134100D+02  0.2543930721D-01
      0.5123574600D+01  0.1900859489D+00
      0.1164662600D+01  0.8524411301D+00
 S   1 1.00       0.000000000000
      0.3272304100D+00  0.1000000000D+01
 S   1 1.00       0.000000000000
      0.1030724100D+00  0.1000000000D+01
 P   1 1.00       0.000000000000
      0.8000000000D+00  0.1000000000D+01
 ****
      8 0
 S   3 1.00       0.000000000000
      0.3406134100D+02  0.2543930721D-01
      0.5123574600D+01  0.1900859489D+00
      0.1164662600D+01  0.8524411301D+00
 S   1 1.00       0.000000000000
      0.3272304100D+00  0.1000000000D+01
 S   1 1.00       0.000000000000
      0.1030724100D+00  0.1000000000D+01
 P   1 1.00       0.000000000000
      0.8000000000D+00  0.1000000000D+01
 ****
      9 0
 S   3 1.00       0.000000000000
      0.3406134100D+02  0.2543930721D-01
      0.5123574600D+01  0.1900859489D+00
      0.1164662600D+01  0.8524411301D+00
 S   1 1.00       0.000000000000
      0.3272304100D+00  0.1000000000D+01
 S   1 1.00       0.000000000000
      0.1030724100D+00  0.1000000000D+01
 P   1 1.00       0.000000000000
      0.8000000000D+00  0.1000000000D+01
 ****
     10 0
 S   3 1.00       0.000000000000
      0.3406134100D+02  0.2543930721D-01
      0.5123574600D+01  0.1900859489D+00
      0.1164662600D+01  0.8524411301D+00
 S   1 1.00       0.000000000000
      0.3272304100D+00  0.1000000000D+01
 S   1 1.00       0.000000000000
      0.1030724100D+00  0.1000000000D+01
 P   1 1.00       0.000000000000
      0.8000000000D+00  0.1000000000D+01
 ****
     11 0
 S   6 1.00       0.000000000000
      0.1973080065D+05  0.5862640263D-03
      0.2957895874D+04  0.4542882059D-02
      0.6732213360D+03  0.2355841345D-01
      0.1906824949D+03  0.9470919329D-01
      0.6229544190D+02  0.2971978491D+00
      0.2265416118D+02  0.6691624690D+00
 S   2 1.00       0.000000000000
      0.8979147743D+01  0.6459668363D+00
      0.3686300237D+01  0.3870057439D+00
 S   1 1.00       0.000000000000
      0.8466007680D+00  0.1000000000D+01
 S   1 1.00       0.000000000000
      0.3364713377D+00  0.1000000000D+01
 S   1 1.00       0.000000000000
      0.1364765367D+00  0.1000000000D+01
 P   4 1.00       0.000000000000
      0.4920038051D+02  0.1144882510D-01
      0.1134679054D+02  0.7842233797D-01
      0.3427397241D+01  0.3081809474D+00
      0.1178552513D+01  0.7202719637D+00
 P   1 1.00       0.000000000000
      0.4164220497D+00  0.1000000000D+01
 P   1 1.00       0.000000000000
      0.1426082601D+00  0.1000000000D+01
 D   1 1.00       0.000000000000
      0.1654000000D+01  0.1000000000D+01
 D   1 1.00       0.000000000000
      0.4690000000D+00  0.1000000000D+01
 F   1 1.00       0.000000000000
      0.1093000000D+01  0.1000000000D+01
 ****
     12 0
 S   6 1.00       0.000000000000
      0.1357534968D+05  0.6064550360D-03
      0.2035233368D+04  0.4697908888D-02
      0.4632256236D+03  0.2433247765D-01
      0.1312001960D+03  0.9739996831D-01
      0.4285301589D+02  0.3019558425D+00
      0.1558418577D+02  0.6623360914D+00
 S   2 1.00       0.000000000000
      0.6206713851D+01  0.6559530854D+00
      0.2576489653D+01  0.3758563329D+00
 S   1 1.00       0.000000000000
      0.5769633942D+00  0.1000000000D+01
 S   1 1.00       0.000000000000
      0.2297283136D+00  0.1000000000D+01
 S   1 1.00       0.000000000000
      0.9516444003D-01  0.1000000000D+01
 P   4 1.00       0.000000000000
      0.3469723224D+02  0.1132722000D-01
      0.7958262283D+01  0.7616965920D-01
      0.2378082688D+01  0.3019225220D+00
      0.8143320818D+00  0.7278502735D+00
 P   1 1.00       0.000000000000
      0.2888754725D+00  0.1000000000D+01
 P   1 1.00       0.000000000000
      0.1005682367D+00  0.1000000000D+01
 D   1 1.00       0.000000000000
      0.1097000000D+01  0.1000000000D+01
 D   1 1.00       0.000000000000
      0.3180000000D+00  0.1000000000D+01
 F   1 1.00       0.000000000000
      0.7610000000D+00  0.1000000000D+01
 ****
     13 0
 S   6 1.00       0.000000000000
      0.1357534968D+05  0.6064550360D-03
      0.2035233368D+04  0.4697908888D-02
      0.4632256236D+03  0.2433247765D-01
      0.1312001960D+03  0.9739996831D-01
      0.4285301589D+02  0.3019558425D+00
      0.1558418577D+02  0.6623360914D+00
 S   2 1.00       0.000000000000
      0.6206713851D+01  0.6559530854D+00
      0.2576489653D+01  0.3758563329D+00
 S   1 1.00       0.000000000000
      0.5769633942D+00  0.1000000000D+01
 S   1 1.00       0.000000000000
      0.2297283136D+00  0.1000000000D+01
 S   1 1.00       0.000000000000
      0.9516444003D-01  0.1000000000D+01
 P   4 1.00       0.000000000000
      0.3469723224D+02  0.1132722000D-01
      0.7958262283D+01  0.7616965920D-01
      0.2378082688D+01  0.3019225220D+00
      0.8143320818D+00  0.7278502735D+00
 P   1 1.00       0.000000000000
      0.2888754725D+00  0.1000000000D+01
 P   1 1.00       0.000000000000
      0.1005682367D+00  0.1000000000D+01
 D   1 1.00       0.000000000000
      0.1097000000D+01  0.1000000000D+01
 D   1 1.00       0.000000000000
      0.3180000000D+00  0.1000000000D+01
 F   1 1.00       0.000000000000
      0.7610000000D+00  0.1000000000D+01
 ****
     14 0
 S   6 1.00       0.000000000000
      0.1357534968D+05  0.6064550360D-03
      0.2035233368D+04  0.4697908888D-02
      0.4632256236D+03  0.2433247765D-01
      0.1312001960D+03  0.9739996831D-01
      0.4285301589D+02  0.3019558425D+00
      0.1558418577D+02  0.6623360914D+00
 S   2 1.00       0.000000000000
      0.6206713851D+01  0.6559530854D+00
      0.2576489653D+01  0.3758563329D+00
 S   1 1.00       0.000000000000
      0.5769633942D+00  0.1000000000D+01
 S   1 1.00       0.000000000000
      0.2297283136D+00  0.1000000000D+01
 S   1 1.00       0.000000000000
      0.9516444003D-01  0.1000000000D+01
 P   4 1.00       0.000000000000
      0.3469723224D+02  0.1132722000D-01
      0.7958262283D+01  0.7616965920D-01
      0.2378082688D+01  0.3019225220D+00
      0.8143320818D+00  0.7278502735D+00
 P   1 1.00       0.000000000000
      0.2888754725D+00  0.1000000000D+01
 P   1 1.00       0.000000000000
      0.1005682367D+00  0.1000000000D+01
 D   1 1.00       0.000000000000
      0.1097000000D+01  0.1000000000D+01
 D   1 1.00       0.000000000000
      0.3180000000D+00  0.1000000000D+01
 F   1 1.00       0.000000000000
      0.7610000000D+00  0.1000000000D+01
 ****
     15 0
 S   3 1.00       0.000000000000
      0.3406134100D+02  0.2543930721D-01
      0.5123574600D+01  0.1900859489D+00
      0.1164662600D+01  0.8524411301D+00
 S   1 1.00       0.000000000000
      0.3272304100D+00  0.1000000000D+01
 S   1 1.00       0.000000000000
      0.1030724100D+00  0.1000000000D+01
 P   1 1.00       0.000000000000
      0.8000000000D+00  0.1000000000D+01
 ****
     16 0
 S   3 1.00       0.000000000000
      0.3406134100D+02  0.2543930721D-01
      0.5123574600D+01  0.1900859489D+00
      0.1164662600D+01  0.8524411301D+00
 S   1 1.00       0.000000000000
      0.3272304100D+00  0.1000000000D+01
 S   1 1.00       0.000000000000
      0.1030724100D+00  0.1000000000D+01
 P   1 1.00       0.000000000000
      0.8000000000D+00  0.1000000000D+01
 ****
     17 0
 S   6 1.00       0.000000000000
      0.1357534968D+05  0.6064550360D-03
      0.2035233368D+04  0.4697908888D-02
      0.4632256236D+03  0.2433247765D-01
      0.1312001960D+03  0.9739996831D-01
      0.4285301589D+02  0.3019558425D+00
      0.1558418577D+02  0.6623360914D+00
 S   2 1.00       0.000000000000
      0.6206713851D+01  0.6559530854D+00
      0.2576489653D+01  0.3758563329D+00
 S   1 1.00       0.000000000000
      0.5769633942D+00  0.1000000000D+01
 S   1 1.00       0.000000000000
      0.2297283136D+00  0.1000000000D+01
 S   1 1.00       0.000000000000
      0.9516444003D-01  0.1000000000D+01
 P   4 1.00       0.000000000000
      0.3469723224D+02  0.1132722000D-01
      0.7958262283D+01  0.7616965920D-01
      0.2378082688D+01  0.3019225220D+00
      0.8143320818D+00  0.7278502735D+00
 P   1 1.00       0.000000000000
      0.2888754725D+00  0.1000000000D+01
 P   1 1.00       0.000000000000
      0.1005682367D+00  0.1000000000D+01
 D   1 1.00       0.000000000000
      0.1097000000D+01  0.1000000000D+01
 D   1 1.00       0.000000000000
      0.3180000000D+00  0.1000000000D+01
 F   1 1.00       0.000000000000
      0.7610000000D+00  0.1000000000D+01
 ****
     18 0
 S   3 1.00       0.000000000000
      0.3406134100D+02  0.2543930721D-01
      0.5123574600D+01  0.1900859489D+00
      0.1164662600D+01  0.8524411301D+00
 S   1 1.00       0.000000000000
      0.3272304100D+00  0.1000000000D+01
 S   1 1.00       0.000000000000
      0.1030724100D+00  0.1000000000D+01
 P   1 1.00       0.000000000000
      0.8000000000D+00  0.1000000000D+01
 ****
     19 0
 S   3 1.00       0.000000000000
      0.3406134100D+02  0.2543930721D-01
      0.5123574600D+01  0.1900859489D+00
      0.1164662600D+01  0.8524411301D+00
 S   1 1.00       0.000000000000
      0.3272304100D+00  0.1000000000D+01
 S   1 1.00       0.000000000000
      0.1030724100D+00  0.1000000000D+01
 P   1 1.00       0.000000000000
      0.8000000000D+00  0.1000000000D+01
 ****
     20 0
 S   3 1.00       0.000000000000
      0.3406134100D+02  0.2543930721D-01
      0.5123574600D+01  0.1900859489D+00
      0.1164662600D+01  0.8524411301D+00
 S   1 1.00       0.000000000000
      0.3272304100D+00  0.1000000000D+01
 S   1 1.00       0.000000000000
      0.1030724100D+00  0.1000000000D+01
 P   1 1.00       0.000000000000
      0.8000000000D+00  0.1000000000D+01
 ****
     21 0
 S   6 1.00       0.000000000000
      0.1357534968D+05  0.6064550360D-03
      0.2035233368D+04  0.4697908888D-02
      0.4632256236D+03  0.2433247765D-01
      0.1312001960D+03  0.9739996831D-01
      0.4285301589D+02  0.3019558425D+00
      0.1558418577D+02  0.6623360914D+00
 S   2 1.00       0.000000000000
      0.6206713851D+01  0.6559530854D+00
      0.2576489653D+01  0.3758563329D+00
 S   1 1.00       0.000000000000
      0.5769633942D+00  0.1000000000D+01
 S   1 1.00       0.000000000000
      0.2297283136D+00  0.1000000000D+01
 S   1 1.00       0.000000000000
      0.9516444003D-01  0.1000000000D+01
 P   4 1.00       0.000000000000
      0.3469723224D+02  0.1132722000D-01
      0.7958262283D+01  0.7616965920D-01
      0.2378082688D+01  0.3019225220D+00
      0.8143320818D+00  0.7278502735D+00
 P   1 1.00       0.000000000000
      0.2888754725D+00  0.1000000000D+01
 P   1 1.00       0.000000000000
      0.1005682367D+00  0.1000000000D+01
 D   1 1.00       0.000000000000
      0.1097000000D+01  0.1000000000D+01
 D   1 1.00       0.000000000000
      0.3180000000D+00  0.1000000000D+01
 F   1 1.00       0.000000000000
      0.7610000000D+00  0.1000000000D+01
 ****
     22 0
 S   3 1.00       0.000000000000
      0.3406134100D+02  0.2543930721D-01
      0.5123574600D+01  0.1900859489D+00
      0.1164662600D+01  0.8524411301D+00
 S   1 1.00       0.000000000000
      0.3272304100D+00  0.1000000000D+01
 S   1 1.00       0.000000000000
      0.1030724100D+00  0.1000000000D+01
 P   1 1.00       0.000000000000
      0.8000000000D+00  0.1000000000D+01
 ****
     23 0
 S   3 1.00       0.000000000000
      0.3406134100D+02  0.2543930721D-01
      0.5123574600D+01  0.1900859489D+00
      0.1164662600D+01  0.8524411301D+00
 S   1 1.00       0.000000000000
      0.3272304100D+00  0.1000000000D+01
 S   1 1.00       0.000000000000
      0.1030724100D+00  0.1000000000D+01
 P   1 1.00       0.000000000000
      0.8000000000D+00  0.1000000000D+01
 ****
     24 0
 S   3 1.00       0.000000000000
      0.3406134100D+02  0.2543930721D-01
      0.5123574600D+01  0.1900859489D+00
      0.1164662600D+01  0.8524411301D+00
 S   1 1.00       0.000000000000
      0.3272304100D+00  0.1000000000D+01
 S   1 1.00       0.000000000000
      0.1030724100D+00  0.1000000000D+01
 P   1 1.00       0.000000000000
      0.8000000000D+00  0.1000000000D+01
 ****
     25 0
 S   6 1.00       0.000000000000
      0.2703238263D+05  0.5722733521D-03
      0.4052387139D+04  0.4435323349D-02
      0.9223272271D+03  0.2302010771D-01
      0.2612407099D+03  0.9282249067D-01
      0.8535464135D+02  0.2937850001D+00
      0.3103503524D+02  0.6740160450D+00
 S   2 1.00       0.000000000000
      0.1226086073D+02  0.6383993703D+00
      0.4998707601D+01  0.3953458713D+00
 S   1 1.00       0.000000000000
      0.1170310816D+01  0.1000000000D+01
 S   1 1.00       0.000000000000
      0.4647474099D+00  0.1000000000D+01
 S   1 1.00       0.000000000000
      0.1850453636D+00  0.1000000000D+01
 P   4 1.00       0.000000000000
      0.6327495480D+02  0.1201833222D-01
      0.1462704938D+02  0.8300542179D-01
      0.4450122346D+01  0.3199174393D+00
      0.1527579965D+01  0.7071554292D+00
 P   1 1.00       0.000000000000
      0.5293511794D+00  0.1000000000D+01
 P   1 1.00       0.000000000000
      0.1747842127D+00  0.1000000000D+01
 D   1 1.00       0.000000000000
      0.2314000000D+01  0.1000000000D+01
 D   1 1.00       0.000000000000
      0.6450000000D+00  0.1000000000D+01
 F   1 1.00       0.000000000000
      0.1428000000D+01  0.1000000000D+01
 ****
     26 0
 S   6 1.00       0.000000000000
      0.1357534968D+05  0.6064550360D-03
      0.2035233368D+04  0.4697908888D-02
      0.4632256236D+03  0.2433247765D-01
      0.1312001960D+03  0.9739996831D-01
      0.4285301589D+02  0.3019558425D+00
      0.1558418577D+02  0.6623360914D+00
 S   2 1.00       0.000000000000
      0.6206713851D+01  0.6559530854D+00
      0.2576489653D+01  0.3758563329D+00
 S   1 1.00       0.000000000000
      0.5769633942D+00  0.1000000000D+01
 S   1 1.00       0.000000000000
      0.2297283136D+00  0.1000000000D+01
 S   1 1.00       0.000000000000
      0.9516444003D-01  0.1000000000D+01
 P   4 1.00       0.000000000000
      0.3469723224D+02  0.1132722000D-01
      0.7958262283D+01  0.7616965920D-01
      0.2378082688D+01  0.3019225220D+00
      0.8143320818D+00  0.7278502735D+00
 P   1 1.00       0.000000000000
      0.2888754725D+00  0.1000000000D+01
 P   1 1.00       0.000000000000
      0.1005682367D+00  0.1000000000D+01
 D   1 1.00       0.000000000000
      0.1097000000D+01  0.1000000000D+01
 D   1 1.00       0.000000000000
      0.3180000000D+00  0.1000000000D+01
 F   1 1.00       0.000000000000
      0.7610000000D+00  0.1000000000D+01
 ****
     27 0
 S   6 1.00       0.000000000000
      0.1357534968D+05  0.6064550360D-03
      0.2035233368D+04  0.4697908888D-02
      0.4632256236D+03  0.2433247765D-01
      0.1312001960D+03  0.9739996831D-01
      0.4285301589D+02  0.3019558425D+00
      0.1558418577D+02  0.6623360914D+00
 S   2 1.00       0.000000000000
      0.6206713851D+01  0.6559530854D+00
      0.2576489653D+01  0.3758563329D+00
 S   1 1.00       0.000000000000
      0.5769633942D+00  0.1000000000D+01
 S   1 1.00       0.000000000000
      0.2297283136D+00  0.1000000000D+01
 S   1 1.00       0.000000000000
      0.9516444003D-01  0.1000000000D+01
 P   4 1.00       0.000000000000
      0.3469723224D+02  0.1132722000D-01
      0.7958262283D+01  0.7616965920D-01
      0.2378082688D+01  0.3019225220D+00
      0.8143320818D+00  0.7278502735D+00
 P   1 1.00       0.000000000000
      0.2888754725D+00  0.1000000000D+01
 P   1 1.00       0.000000000000
      0.1005682367D+00  0.1000000000D+01
 D   1 1.00       0.000000000000
      0.1097000000D+01  0.1000000000D+01
 D   1 1.00       0.000000000000
      0.3180000000D+00  0.1000000000D+01
 F   1 1.00       0.000000000000
      0.7610000000D+00  0.1000000000D+01
 ****
     28 0
 S   6 1.00       0.000000000000
      0.1357534968D+05  0.6064550360D-03
      0.2035233368D+04  0.4697908888D-02
      0.4632256236D+03  0.2433247765D-01
      0.1312001960D+03  0.9739996831D-01
      0.4285301589D+02  0.3019558425D+00
      0.1558418577D+02  0.6623360914D+00
 S   2 1.00       0.000000000000
      0.6206713851D+01  0.6559530854D+00
      0.2576489653D+01  0.3758563329D+00
 S   1 1.00       0.000000000000
      0.5769633942D+00  0.1000000000D+01
 S   1 1.00       0.000000000000
      0.2297283136D+00  0.1000000000D+01
 S   1 1.00       0.000000000000
      0.9516444003D-01  0.1000000000D+01
 P   4 1.00       0.000000000000
      0.3469723224D+02  0.1132722000D-01
      0.7958262283D+01  0.7616965920D-01
      0.2378082688D+01  0.3019225220D+00
      0.8143320818D+00  0.7278502735D+00
 P   1 1.00       0.000000000000
      0.2888754725D+00  0.1000000000D+01
 P   1 1.00       0.000000000000
      0.1005682367D+00  0.1000000000D+01
 D   1 1.00       0.000000000000
      0.1097000000D+01  0.1000000000D+01
 D   1 1.00       0.000000000000
      0.3180000000D+00  0.1000000000D+01
 F   1 1.00       0.000000000000
      0.7610000000D+00  0.1000000000D+01
 ****
     29 0
 S   6 1.00       0.000000000000
      0.1357534968D+05  0.6064550360D-03
      0.2035233368D+04  0.4697908888D-02
      0.4632256236D+03  0.2433247765D-01
      0.1312001960D+03  0.9739996831D-01
      0.4285301589D+02  0.3019558425D+00
      0.1558418577D+02  0.6623360914D+00
 S   2 1.00       0.000000000000
      0.6206713851D+01  0.6559530854D+00
      0.2576489653D+01  0.3758563329D+00
 S   1 1.00       0.000000000000
      0.5769633942D+00  0.1000000000D+01
 S   1 1.00       0.000000000000
      0.2297283136D+00  0.1000000000D+01
 S   1 1.00       0.000000000000
      0.9516444003D-01  0.1000000000D+01
 P   4 1.00       0.000000000000
      0.3469723224D+02  0.1132722000D-01
      0.7958262283D+01  0.7616965920D-01
      0.2378082688D+01  0.3019225220D+00
      0.8143320818D+00  0.7278502735D+00
 P   1 1.00       0.000000000000
      0.2888754725D+00  0.1000000000D+01
 P   1 1.00       0.000000000000
      0.1005682367D+00  0.1000000000D+01
 D   1 1.00       0.000000000000
      0.1097000000D+01  0.1000000000D+01
 D   1 1.00       0.000000000000
      0.3180000000D+00  0.1000000000D+01
 F   1 1.00       0.000000000000
      0.7610000000D+00  0.1000000000D+01
 ****
     30 0
 S   3 1.00       0.000000000000
      0.3406134100D+02  0.2543930721D-01
      0.5123574600D+01  0.1900859489D+00
      0.1164662600D+01  0.8524411301D+00
 S   1 1.00       0.000000000000
      0.3272304100D+00  0.1000000000D+01
 S   1 1.00       0.000000000000
      0.1030724100D+00  0.1000000000D+01
 P   1 1.00       0.000000000000
      0.8000000000D+00  0.1000000000D+01
 ****
     31 0
 S   3 1.00       0.000000000000
      0.3406134100D+02  0.2543930721D-01
      0.5123574600D+01  0.1900859489D+00
      0.1164662600D+01  0.8524411301D+00
 S   1 1.00       0.000000000000
      0.3272304100D+00  0.1000000000D+01
 S   1 1.00       0.000000000000
      0.1030724100D+00  0.1000000000D+01
 P   1 1.00       0.000000000000
      0.8000000000D+00  0.1000000000D+01
 ****
     32 0
 S   6 1.00       0.000000000000
      0.1357534968D+05  0.6064550360D-03
      0.2035233368D+04  0.4697908888D-02
      0.4632256236D+03  0.2433247765D-01
      0.1312001960D+03  0.9739996831D-01
      0.4285301589D+02  0.3019558425D+00
      0.1558418577D+02  0.6623360914D+00
 S   2 1.00       0.000000000000
      0.6206713851D+01  0.6559530854D+00
      0.2576489653D+01  0.3758563329D+00
[...]
 Coeff:      0.251D-02-0.474D-01-0.200D-01 0.146D+00 0.267D+00 0.652D+00
 Gap=     0.196 Goal=   None    Shift=    0.000
 RMSDP=3.28D-06 MaxDP=4.63D-04 DE=-1.40D-05 OVMax= 1.37D-03

 Cycle   7  Pass 1  IDiag  1:
 RMSU=  2.09D-06    CP:  1.00D+00  1.13D+00  6.74D-01  1.44D+00  7.75D-01
                    CP:  9.71D-01
 E= -1069.84148476293     Delta-E=       -0.000003143482 Rises=F Damp=F
 DIIS: error= 2.34D-05 at cycle   7 NSaved=   7.
 NSaved= 7 IEnMin= 7 EnMin= -1069.84148476293     IErMin= 7 ErrMin= 2.34D-05
 ErrMax= 2.34D-05  0.00D+00 EMaxC= 1.00D-01 BMatC= 4.01D-07 BMatP= 1.55D-06
 IDIUse=1 WtCom= 1.00D+00 WtEn= 0.00D+00
 Coeff-Com:  0.138D-02 0.255D-02-0.986D-02-0.972D-01-0.805D-02 0.339D+00
 Coeff-Com:  0.773D+00
 Coeff:      0.138D-02 0.255D-02-0.986D-02-0.972D-01-0.805D-02 0.339D+00
 Coeff:      0.773D+00
 Gap=     0.196 Goal=   None    Shift=    0.000
 RMSDP=2.43D-06 MaxDP=2.60D-04 DE=-3.14D-06 OVMax= 1.24D-03

 Cycle   8  Pass 1  IDiag  1:
 RMSU=  1.34D-06    CP:  1.00D+00  1.13D+00  6.80D-01  1.50D+00  8.48D-01
                    CP:  1.21D+00  1.18D+00
 E= -1069.84148626169     Delta-E=       -0.000001498754 Rises=F Damp=F
 DIIS: error= 1.18D-05 at cycle   8 NSaved=   8.
 NSaved= 8 IEnMin= 8 EnMin= -1069.84148626169     IErMin= 8 ErrMin= 1.18D-05
 ErrMax= 1.18D-05  0.00D+00 EMaxC= 1.00D-01 BMatC= 7.56D-08 BMatP= 4.01D-07
 IDIUse=1 WtCom= 1.00D+00 WtEn= 0.00D+00
 Coeff-Com: -0.454D-03 0.192D-01 0.488D-02-0.860D-01-0.102D+00-0.136D+00
 Coeff-Com:  0.245D+00 0.106D+01
 Coeff:     -0.454D-03 0.192D-01 0.488D-02-0.860D-01-0.102D+00-0.136D+00
 Coeff:      0.245D+00 0.106D+01
 Gap=     0.196 Goal=   None    Shift=    0.000
 RMSDP=1.88D-06 MaxDP=2.12D-04 DE=-1.50D-06 OVMax= 1.02D-03

 Cycle   9  Pass 1  IDiag  1:
 RMSU=  6.20D-07    CP:  1.00D+00  1.13D+00  6.84D-01  1.53D+00  9.06D-01
                    CP:  1.39D+00  1.68D+00  1.32D+00
 E= -1069.84148675021     Delta-E=       -0.000000488526 Rises=F Damp=F
 DIIS: error= 3.42D-06 at cycle   9 NSaved=   9.
 NSaved= 9 IEnMin= 9 EnMin= -1069.84148675021     IErMin= 9 ErrMin= 3.42D-06
 ErrMax= 3.42D-06  0.00D+00 EMaxC= 1.00D-01 BMatC= 1.82D-08 BMatP= 7.56D-08
 IDIUse=1 WtCom= 1.00D+00 WtEn= 0.00D+00
 Coeff-Com: -0.424D-03 0.940D-02 0.398D-02-0.294D-01-0.492D-01-0.114D+00
 Coeff-Com:  0.974D-02 0.527D+00 0.643D+00
 Coeff:     -0.424D-03 0.940D-02 0.398D-02-0.294D-01-0.492D-01-0.114D+00
 Coeff:      0.974D-02 0.527D+00 0.643D+00
 Gap=     0.196 Goal=   None    Shift=    0.000
 RMSDP=4.77D-07 MaxDP=4.73D-05 DE=-4.89D-07 OVMax= 2.29D-04

 Cycle  10  Pass 1  IDiag  1:
 RMSU=  2.11D-07    CP:  1.00D+00  1.13D+00  6.85D-01  1.54D+00  9.26D-01
                    CP:  1.42D+00  1.73D+00  1.54D+00  1.02D+00
 E= -1069.84148678979     Delta-E=       -0.000000039575 Rises=F Damp=F
 DIIS: error= 1.10D-06 at cycle  10 NSaved=  10.
 NSaved=10 IEnMin=10 EnMin= -1069.84148678979     IErMin=10 ErrMin= 1.10D-06
 ErrMax= 1.10D-06  0.00D+00 EMaxC= 1.00D-01 BMatC= 1.62D-09 BMatP= 1.82D-08
 IDIUse=1 WtCom= 1.00D+00 WtEn= 0.00D+00
 Coeff-Com: -0.603D-04-0.123D-03 0.399D-03 0.419D-02 0.219D-02-0.109D-01
 Coeff-Com: -0.412D-01-0.853D-02 0.197D+00 0.857D+00
 Coeff:     -0.603D-04-0.123D-03 0.399D-03 0.419D-02 0.219D-02-0.109D-01
 Coeff:     -0.412D-01-0.853D-02 0.197D+00 0.857D+00
 Gap=     0.196 Goal=   None    Shift=    0.000
 RMSDP=1.87D-07 MaxDP=2.35D-05 DE=-3.96D-08 OVMax= 6.89D-05

 Cycle  11  Pass 1  IDiag  1:
 RMSU=  9.20D-08    CP:  1.00D+00  1.13D+00  6.84D-01  1.54D+00  9.29D-01
                    CP:  1.42D+00  1.77D+00  1.60D+00  1.18D+00  1.06D+00
 E= -1069.84148679391     Delta-E=       -0.000000004121 Rises=F Damp=F
 DIIS: error= 4.05D-07 at cycle  11 NSaved=  11.
 NSaved=11 IEnMin=11 EnMin= -1069.84148679391     IErMin=11 ErrMin= 4.05D-07
 ErrMax= 4.05D-07  0.00D+00 EMaxC= 1.00D-01 BMatC= 5.68D-10 BMatP= 1.62D-09
 IDIUse=1 WtCom= 1.00D+00 WtEn= 0.00D+00
 Coeff-Com:  0.351D-04-0.155D-02-0.465D-03 0.666D-02 0.951D-02 0.133D-01
 Coeff-Com: -0.248D-01-0.875D-01 0.888D-04 0.454D+00 0.631D+00
 Coeff:      0.351D-04-0.155D-02-0.465D-03 0.666D-02 0.951D-02 0.133D-01
 Coeff:     -0.248D-01-0.875D-01 0.888D-04 0.454D+00 0.631D+00
 Gap=     0.196 Goal=   None    Shift=    0.000
 RMSDP=6.63D-08 MaxDP=6.05D-06 DE=-4.12D-09 OVMax= 1.60D-05

 Cycle  12  Pass 1  IDiag  1:
 RMSU=  3.13D-08    CP:  1.00D+00  1.13D+00  6.84D-01  1.54D+00  9.31D-01
                    CP:  1.42D+00  1.77D+00  1.62D+00  1.18D+00  1.24D+00
                    CP:  1.16D+00
 E= -1069.84148679467     Delta-E=       -0.000000000761 Rises=F Damp=F
 DIIS: error= 1.31D-07 at cycle  12 NSaved=  12.
 NSaved=12 IEnMin=12 EnMin= -1069.84148679467     IErMin=12 ErrMin= 1.31D-07
 ErrMax= 1.31D-07  0.00D+00 EMaxC= 1.00D-01 BMatC= 3.36D-11 BMatP= 5.68D-10
 IDIUse=1 WtCom= 1.00D+00 WtEn= 0.00D+00
 Coeff-Com:  0.140D-04-0.300D-03-0.170D-03 0.785D-03 0.222D-02 0.456D-02
 Coeff-Com: -0.206D-02-0.158D-01-0.281D-01-0.138D-01 0.132D+00 0.921D+00
 Coeff:      0.140D-04-0.300D-03-0.170D-03 0.785D-03 0.222D-02 0.456D-02
 Coeff:     -0.206D-02-0.158D-01-0.281D-01-0.138D-01 0.132D+00 0.921D+00
 Gap=     0.196 Goal=   None    Shift=    0.000
 RMSDP=2.87D-08 MaxDP=2.65D-06 DE=-7.61D-10 OVMax= 7.99D-06

 Cycle  13  Pass 1  IDiag  1:
 RMSU=  1.05D-08    CP:  1.00D+00  1.13D+00  6.84D-01  1.54D+00  9.31D-01
                    CP:  1.41D+00  1.77D+00  1.63D+00  1.18D+00  1.28D+00
                    CP:  1.34D+00  1.24D+00
 E= -1069.84148679479     Delta-E=       -0.000000000120 Rises=F Damp=F
 DIIS: error= 7.01D-08 at cycle  13 NSaved=  13.
 NSaved=13 IEnMin=13 EnMin= -1069.84148679479     IErMin=13 ErrMin= 7.01D-08
 ErrMax= 7.01D-08  0.00D+00 EMaxC= 1.00D-01 BMatC= 7.37D-12 BMatP= 3.36D-11
 IDIUse=1 WtCom= 1.00D+00 WtEn= 0.00D+00
 Coeff-Com: -0.158D-05 0.169D-03 0.189D-04-0.892D-03-0.751D-03-0.711D-03
 Coeff-Com:  0.258D-02 0.107D-01-0.858D-02-0.808D-01-0.756D-01 0.300D+00
 Coeff-Com:  0.854D+00
 Coeff:     -0.158D-05 0.169D-03 0.189D-04-0.892D-03-0.751D-03-0.711D-03
 Coeff:      0.258D-02 0.107D-01-0.858D-02-0.808D-01-0.756D-01 0.300D+00
 Coeff:      0.854D+00
 Gap=     0.196 Goal=   None    Shift=    0.000
 RMSDP=1.58D-08 MaxDP=2.33D-06 DE=-1.20D-10 OVMax= 3.25D-06

 Cycle  14  Pass 1  IDiag  1:
 RMSU=  5.49D-09    CP:  1.00D+00  1.13D+00  6.84D-01  1.54D+00  9.32D-01
                    CP:  1.41D+00  1.77D+00  1.63D+00  1.18D+00  1.30D+00
                    CP:  1.41D+00  1.42D+00  1.33D+00
 E= -1069.84148679482     Delta-E=       -0.000000000028 Rises=F Damp=F
 DIIS: error= 1.76D-08 at cycle  14 NSaved=  14.
 NSaved=14 IEnMin=14 EnMin= -1069.84148679482     IErMin=14 ErrMin= 1.76D-08
 ErrMax= 1.76D-08  0.00D+00 EMaxC= 1.00D-01 BMatC= 9.37D-13 BMatP= 7.37D-12
 IDIUse=1 WtCom= 1.00D+00 WtEn= 0.00D+00
 Coeff-Com: -0.251D-05 0.101D-03 0.263D-04-0.421D-03-0.526D-03-0.879D-03
 Coeff-Com:  0.801D-03 0.635D-02 0.147D-02-0.255D-01-0.474D-01-0.620D-02
 Coeff-Com:  0.292D+00 0.780D+00
 Coeff:     -0.251D-05 0.101D-03 0.263D-04-0.421D-03-0.526D-03-0.879D-03
 Coeff:      0.801D-03 0.635D-02 0.147D-02-0.255D-01-0.474D-01-0.620D-02
 Coeff:      0.292D+00 0.780D+00
 Gap=     0.196 Goal=   None    Shift=    0.000
 RMSDP=3.93D-09 MaxDP=5.00D-07 DE=-2.77D-11 OVMax= 1.28D-06

 Error on total polarization charges =  0.01689
 SCF Done:  E(RCAM-B3LYP) =  -1069.84148679     A.U. after   14 cycles
            NFock= 14  Conv=0.39D-08     -V/T= 2.0045
 KE= 1.065082165427D+03 PE=-6.595288106478D+03 EE= 2.408358435450D+03
 Leave Link  502 at Thu May  9 03:56:41 2024, MaxMem=  2684354560 cpu:           25475.8 elap:            1062.3
 (Enter /s/ls4/groups/g0130/bin/g16/l801.exe)
 DoSCS=F DFT=T ScalE2(SS,OS)=  1.000000  1.000000
 ExpMin= 9.52D-02 ExpMax= 2.70D+04 ExpMxC= 9.22D+02 IAcc=3 IRadAn=         5 AccDes= 0.00D+00
 HarFok:  IExCor=  205 AccDes= 0.00D+00 IRadAn=         5 IDoV=-2 UseB2=F ITyADJ=14
 ICtDFT= 12500011 ScaDFX=  1.000000  1.000000  1.000000  1.000000
 GSVD:  LWork=        -768 too small for GESVD, short by        3240 words or        3240 for optimal perf.
 Largest valence mixing into a core orbital is  6.36D-05
 Largest core mixing into a valence orbital is  1.14D-05
 Range of M.O.s used for correlation:    25   852
 NBasis=   852 NAE=    85 NBE=    85 NFC=    24 NFV=     0
 NROrb=    828 NOA=    61 NOB=    61 NVA=   767 NVB=   767

 **** Warning!!: The largest alpha MO coefficient is  0.50797881D+02

 Leave Link  801 at Thu May  9 03:56:42 2024, MaxMem=  2684354560 cpu:               7.3 elap:               0.3
 (Enter /s/ls4/groups/g0130/bin/g16/l914.exe)
 RHF ground state
 Two-electron integrals replicated using symmetry.
 MDV=  2684354560 DFT=T DoStab=F Mixed=T DoRPA=T DoScal=F NonHer=T
 NEqPCM:  Using equilibrium solvation (IEInf=0, Eps=   4.7113, EpsInf=   2.0906)
 Making orbital integer symmetry assigments:
 Orbital symmetries:
       Occupied  (A) (A) (A) (A) (A) (A) (A) (A) (A) (A) (A) (A)
                 (A) (A) (A) (A) (A) (A) (A) (A) (A) (A) (A) (A)
                 (A) (A) (A) (A) (A) (A) (A) (A) (A) (A) (A) (A)
                 (A) (A) (A) (A) (A) (A) (A) (A) (A) (A) (A) (A)
                 (A) (A) (A) (A) (A) (A) (A) (A) (A) (A) (A) (A)
                 (A) (A) (A) (A) (A) (A) (A) (A) (A) (A) (A) (A)
                 (A) (A) (A) (A) (A) (A) (A) (A) (A) (A) (A) (A)
                 (A)
       Virtual   (A) (A) (A) (A) (A) (A) (A) (A) (A) (A) (A) (A)
                 (A) (A) (A) (A) (A) (A) (A) (A) (A) (A) (A) (A)
                 (A) (A) (A) (A) (A) (A) (A) (A) (A) (A) (A) (A)
                 (A) (A) (A) (A) (A) (A) (A) (A) (A) (A) (A) (A)
                 (A) (A) (A) (A) (A) (A) (A) (A) (A) (A) (A) (A)
                 (A) (A) (A) (A) (A) (A) (A) (A) (A) (A) (A) (A)
                 (A) (A) (A) (A) (A) (A) (A) (A) (A) (A) (A) (A)
                 (A) (A) (A) (A) (A) (A) (A) (A) (A) (A) (A) (A)
                 (A) (A) (A) (A) (A) (A) (A) (A) (A) (A) (A) (A)
                 (A) (A) (A) (A) (A) (A) (A) (A) (A) (A) (A) (A)
                 (A) (A) (A) (A) (A) (A) (A) (A) (A) (A) (A) (A)
                 (A) (A) (A) (A) (A) (A) (A) (A) (A) (A) (A) (A)
                 (A) (A) (A) (A) (A) (A) (A) (A) (A) (A) (A) (A)
                 (A) (A) (A) (A) (A) (A) (A) (A) (A) (A) (A) (A)
                 (A) (A) (A) (A) (A) (A) (A) (A) (A) (A) (A) (A)
                 (A) (A) (A) (A) (A) (A) (A) (A) (A) (A) (A) (A)
                 (A) (A) (A) (A) (A) (A) (A) (A) (A) (A) (A) (A)
                 (A) (A) (A) (A) (A) (A) (A) (A) (A) (A) (A) (A)
                 (A) (A) (A) (A) (A) (A) (A) (A) (A) (A) (A) (A)
                 (A) (A) (A) (A) (A) (A) (A) (A) (A) (A) (A) (A)
                 (A) (A) (A) (A) (A) (A) (A) (A) (A) (A) (A) (A)
                 (A) (A) (A) (A) (A) (A) (A) (A) (A) (A) (A) (A)
                 (A) (A) (A) (A) (A) (A) (A) (A) (A) (A) (A) (A)
                 (A) (A) (A) (A) (A) (A) (A) (A) (A) (A) (A) (A)
                 (A) (A) (A) (A) (A) (A) (A) (A) (A) (A) (A) (A)
                 (A) (A) (A) (A) (A) (A) (A) (A) (A) (A) (A) (A)
                 (A) (A) (A) (A) (A) (A) (A) (A) (A) (A) (A) (A)
                 (A) (A) (A) (A) (A) (A) (A) (A) (A) (A) (A) (A)
                 (A) (A) (A) (A) (A) (A) (A) (A) (A) (A) (A) (A)
                 (A) (A) (A) (A) (A) (A) (A) (A) (A) (A) (A) (A)
                 (A) (A) (A) (A) (A) (A) (A) (A) (A) (A) (A) (A)
                 (A) (A) (A) (A) (A) (A) (A) (A) (A) (A) (A) (A)
                 (A) (A) (A) (A) (A) (A) (A) (A) (A) (A) (A) (A)
                 (A) (A) (A) (A) (A) (A) (A) (A) (A) (A) (A) (A)
                 (A) (A) (A) (A) (A) (A) (A) (A) (A) (A) (A) (A)
                 (A) (A) (A) (A) (A) (A) (A) (A) (A) (A) (A) (A)
                 (A) (A) (A) (A) (A) (A) (A) (A) (A) (A) (A) (A)
                 (A) (A) (A) (A) (A) (A) (A) (A) (A) (A) (A) (A)
                 (A) (A) (A) (A) (A) (A) (A) (A) (A) (A) (A) (A)
                 (A) (A) (A) (A) (A) (A) (A) (A) (A) (A) (A) (A)
                 (A) (A) (A) (A) (A) (A) (A) (A) (A) (A) (A) (A)
                 (A) (A) (A) (A) (A) (A) (A) (A) (A) (A) (A) (A)
                 (A) (A) (A) (A) (A) (A) (A) (A) (A) (A) (A) (A)
                 (A) (A) (A) (A) (A) (A) (A) (A) (A) (A) (A) (A)
                 (A) (A) (A) (A) (A) (A) (A) (A) (A) (A) (A) (A)
                 (A) (A) (A) (A) (A) (A) (A) (A) (A) (A) (A) (A)
                 (A) (A) (A) (A) (A) (A) (A) (A) (A) (A) (A) (A)
                 (A) (A) (A) (A) (A) (A) (A) (A) (A) (A) (A) (A)
                 (A) (A) (A) (A) (A) (A) (A) (A) (A) (A) (A) (A)
                 (A) (A) (A) (A) (A) (A) (A) (A) (A) (A) (A) (A)
                 (A) (A) (A) (A) (A) (A) (A) (A) (A) (A) (A) (A)
                 (A) (A) (A) (A) (A) (A) (A) (A) (A) (A) (A) (A)
                 (A) (A) (A) (A) (A) (A) (A) (A) (A) (A) (A) (A)
                 (A) (A) (A) (A) (A) (A) (A) (A) (A) (A) (A) (A)
                 (A) (A) (A) (A) (A) (A) (A) (A) (A) (A) (A) (A)
                 (A) (A) (A) (A) (A) (A) (A) (A) (A) (A) (A) (A)
                 (A) (A) (A) (A) (A) (A) (A) (A) (A) (A) (A) (A)
                 (A) (A) (A) (A) (A) (A) (A) (A) (A) (A) (A) (A)
                 (A) (A) (A) (A) (A) (A) (A) (A) (A) (A) (A) (A)
                 (A) (A) (A) (A) (A) (A) (A) (A) (A) (A) (A) (A)
                 (A) (A) (A) (A) (A) (A) (A) (A) (A) (A) (A) (A)
                 (A) (A) (A) (A) (A) (A) (A) (A) (A) (A) (A) (A)
                 (A) (A) (A) (A) (A) (A) (A) (A) (A) (A) (A) (A)
                 (A) (A) (A) (A) (A) (A) (A) (A) (A) (A) (A)
 Generating guess from densities on rwf.
 Convergence on wavefunction:    0.000001000000000
 Davidson Disk Diagonalization:  ConvIn= 1.00D-06 SkipCon=T Conv= 1.00D-06.
 Max sub-space:  2000 roots to seek:     5 dimension of matrix:        93574
 Iteration     1 Dimension    10 NMult     0 NNew     10
 CISAX will form    10 AO SS matrices at one time.
 NMat=    10 NSing=    10 JSym2X= 0.
 FoFJK:  IHMeth= 1 ICntrl=       0 DoSepK=T KAlg= 0 I1Cent=           0 FoldK=F
 IRaf=         1 NMat=      20 IRICut=       1 DoRegI=T DoRafI=F ISym2E= 0 IDoP0=3 IntGTp=3.
 FoFCou: FMM=F IPFlag=           0 FMFlag=      100000 FMFlg1=           0
         NFxFlg=           0 DoJE=F BraDBF=F KetDBF=F FulRan=T
         wScrn=  0.000000 ICntrl=       500 IOpCl=  0 I1Cent=           0 NGrid=           0
         NMat0=   10 NMatS0=     10 NMatT0=    0 NMatD0=   10 NMtDS0=    0 NMtDT0=    0
 Symmetry not used in FoFCou.
 Excitation Energies [eV] at current iteration:
 Root      1 :     3.018020836234267
 Root      2 :     3.586073883298973
 Root      3 :     3.981838149275134
 Root      4 :     4.232707070816440
 Root      5 :     4.317700288717813
 Iteration     2 Dimension    20 NMult    10 NNew     10
 CISAX will form    10 AO SS matrices at one time.
 NMat=    10 NSing=    10 JSym2X= 0.
 Root      1 not converged, maximum delta is    0.019903628553504
 Root      2 not converged, maximum delta is    0.020705326408276
 Root      3 not converged, maximum delta is    0.016138768675663
 Root      4 not converged, maximum delta is    0.117040911330912
 Root      5 not converged, maximum delta is    0.106015605228169
 Excitation Energies [eV] at current iteration:
 Root      1 :     2.990392625882266   Change is   -0.027628210352001
 Root      2 :     3.524658863191138   Change is   -0.061415020107835
 Root      3 :     3.924461767149346   Change is   -0.057376382125788
 Root      4 :     4.182946935123576   Change is   -0.049760135692865
 Root      5 :     4.277383293020858   Change is   -0.040316995696955
 Iteration     3 Dimension    30 NMult    20 NNew     10
 CISAX will form    10 AO SS matrices at one time.
 NMat=    10 NSing=    10 JSym2X= 0.
 Root      1 not converged, maximum delta is    0.004400430494320
 Root      2 not converged, maximum delta is    0.004817769484041
 Root      3 not converged, maximum delta is    0.004763267141144
 Root      4 not converged, maximum delta is    0.006833312096306
 Root      5 not converged, maximum delta is    0.006483595314186
 Excitation Energies [eV] at current iteration:
 Root      1 :     2.989029965629952   Change is   -0.001362660252314
 Root      2 :     3.522555541567526   Change is   -0.002103321623612
 Root      3 :     3.923556250407838   Change is   -0.000905516741508
 Root      4 :     4.180358803366291   Change is   -0.002588131757285
 Root      5 :     4.275457908455337   Change is   -0.001925384565521
 Iteration     4 Dimension    40 NMult    30 NNew     10
 CISAX will form    10 AO SS matrices at one time.
 NMat=    10 NSing=    10 JSym2X= 0.
 Root      1 not converged, maximum delta is    0.001604584913661
 Root      2 not converged, maximum delta is    0.004043848644602
 Root      3 not converged, maximum delta is    0.004552315958624
 Root      4 not converged, maximum delta is    0.011006839121902
 Root      5 not converged, maximum delta is    0.004521134915696
 Excitation Energies [eV] at current iteration:
 Root      1 :     2.988904249049891   Change is   -0.000125716580061
 Root      2 :     3.522289781048098   Change is   -0.000265760519428
 Root      3 :     3.923422702416969   Change is   -0.000133547990869
 Root      4 :     4.179555575579784   Change is   -0.000803227786508
 Root      5 :     4.275064239697168   Change is   -0.000393668758169
 Iteration     5 Dimension    50 NMult    40 NNew     10
 CISAX will form    10 AO SS matrices at one time.
 NMat=    10 NSing=    10 JSym2X= 0.
 Root      1 not converged, maximum delta is    0.000400057009684
 Root      2 not converged, maximum delta is    0.001734419058756
 Root      3 not converged, maximum delta is    0.002651688193036
 Root      4 not converged, maximum delta is    0.016141385750036
 Root      5 not converged, maximum delta is    0.009628599330849
 Excitation Energies [eV] at current iteration:
 Root      1 :     2.988892414504589   Change is   -0.000011834545302
 Root      2 :     3.522253523223340   Change is   -0.000036257824757
 Root      3 :     3.923384820464300   Change is   -0.000037881952670
 Root      4 :     4.179012679780070   Change is   -0.000542895799713
 Root      5 :     4.274886368786103   Change is   -0.000177870911065
 Iteration     6 Dimension    60 NMult    50 NNew     10
 CISAX will form    10 AO SS matrices at one time.
 NMat=    10 NSing=    10 JSym2X= 0.
 Root      1 not converged, maximum delta is    0.000040732307386
 Root      2 not converged, maximum delta is    0.000175925665280
 Root      3 not converged, maximum delta is    0.000441269843158
 Root      4 not converged, maximum delta is    0.003937927635788
 Root      5 not converged, maximum delta is    0.003340847698303
 Excitation Energies [eV] at current iteration:
 Root      1 :     2.988891651961108   Change is   -0.000000762543481
 Root      2 :     3.522250953039741   Change is   -0.000002570183599
 Root      3 :     3.923381178783403   Change is   -0.000003641680896
 Root      4 :     4.178905287561206   Change is   -0.000107392218863
 Root      5 :     4.274844812748564   Change is   -0.000041556037539
 Iteration     7 Dimension    70 NMult    60 NNew     10
 CISAX will form    10 AO SS matrices at one time.
 NMat=    10 NSing=    10 JSym2X= 0.
 Root      1 not converged, maximum delta is    0.000016189526311
 Root      2 not converged, maximum delta is    0.000023180489681
 Root      3 not converged, maximum delta is    0.000130417207271
 Root      4 not converged, maximum delta is    0.000561729057476
 Root      5 not converged, maximum delta is    0.000589511945369
 Excitation Energies [eV] at current iteration:
 Root      1 :     2.988891602046217   Change is   -0.000000049914891
 Root      2 :     3.522250809801598   Change is   -0.000000143238144
 Root      3 :     3.923380779331220   Change is   -0.000000399452183
 Root      4 :     4.178893197967232   Change is   -0.000012089593974
 Root      5 :     4.274839096099305   Change is   -0.000005716649258
 Iteration     8 Dimension    80 NMult    70 NNew     10
 CISAX will form    10 AO SS matrices at one time.
 NMat=    10 NSing=    10 JSym2X= 0.
