 Entering Gaussian System, Link 0=/s/ls4/groups/g0130/bin/g16/g16
 Input=sp1_s1_pbe0.gjf
 Output=sp1_s1_pbe0.log
 Initial command:
 /s/ls4/groups/g0130/bin/g16/l1.exe "/dev/shm/scratch_artd/Gau-44621.inp" -scrdir="/dev/shm/scratch_artd/"
 Entering Link 1 = /s/ls4/groups/g0130/bin/g16/l1.exe PID=     44622.
  
 Copyright (c) 1988,1990,1992,1993,1995,1998,2003,2009,2016,
            Gaussian, Inc.  All Rights Reserved.
  
 This is part of the Gaussian(R) 16 program.  It is based on
 the Gaussian(R) 09 system (copyright 2009, Gaussian, Inc.),
 the Gaussian(R) 03 system (copyright 2003, Gaussian, Inc.),
 the Gaussian(R) 98 system (copyright 1998, Gaussian, Inc.),
 the Gaussian(R) 94 system (copyright 1995, Gaussian, Inc.),
 the Gaussian 92(TM) system (copyright 1992, Gaussian, Inc.),
 the Gaussian 90(TM) system (copyright 1990, Gaussian, Inc.),
 the Gaussian 88(TM) system (copyright 1988, Gaussian, Inc.),
 the Gaussian 86(TM) system (copyright 1986, Carnegie Mellon
 University), and the Gaussian 82(TM) system (copyright 1983,
 Carnegie Mellon University). Gaussian is a federally registered
 trademark of Gaussian, Inc.
  
 This software contains proprietary and confidential information,
 including trade secrets, belonging to Gaussian, Inc.
  
 This software is provided under written license and may be
 used, copied, transmitted, or stored only in accord with that
 written license.
  
 The following legend is applicable only to US Government
 contracts under FAR:
  
                    RESTRICTED RIGHTS LEGEND
  
 Use, reproduction and disclosure by the US Government is
 subject to restrictions as set forth in subparagraphs (a)
 and (c) of the Commercial Computer Software - Restricted
 Rights clause in FAR 52.227-19.
  
 Gaussian, Inc.
 340 Quinnipiac St., Bldg. 40, Wallingford CT 06492
  
  
 ---------------------------------------------------------------
 Warning -- This program may not be used in any manner that
 competes with the business of Gaussian, Inc. or will provide
 assistance to any competitor of Gaussian, Inc.  The licensee
 of this program is prohibited from giving any competitor of
 Gaussian, Inc. access to this program.  By using this program,
 the user acknowledges that Gaussian, Inc. is engaged in the
 business of creating and licensing software in the field of
 computational chemistry and represents and warrants to the
 licensee that it is not a competitor of Gaussian, Inc. and that
 it will not use this program in any manner prohibited above.
 ---------------------------------------------------------------
  

 Cite this work as:
 Gaussian 16, Revision A.03,
 M. J. Frisch, G. W. Trucks, H. B. Schlegel, G. E. Scuseria, 
 M. A. Robb, J. R. Cheeseman, G. Scalmani, V. Barone, 
 G. A. Petersson, H. Nakatsuji, X. Li, M. Caricato, A. V. Marenich, 
 J. Bloino, B. G. Janesko, R. Gomperts, B. Mennucci, H. P. Hratchian, 
 J. V. Ortiz, A. F. Izmaylov, J. L. Sonnenberg, D. Williams-Young, 
 F. Ding, F. Lipparini, F. Egidi, J. Goings, B. Peng, A. Petrone, 
 T. Henderson, D. Ranasinghe, V. G. Zakrzewski, J. Gao, N. Rega, 
 G. Zheng, W. Liang, M. Hada, M. Ehara, K. Toyota, R. Fukuda, 
 J. Hasegawa, M. Ishida, T. Nakajima, Y. Honda, O. Kitao, H. Nakai, 
 T. Vreven, K. Throssell, J. A. Montgomery, Jr., J. E. Peralta, 
 F. Ogliaro, M. J. Bearpark, J. J. Heyd, E. N. Brothers, K. N. Kudin, 
 V. N. Staroverov, T. A. Keith, R. Kobayashi, J. Normand, 
 K. Raghavachari, A. P. Rendell, J. C. Burant, S. S. Iyengar, 
 J. Tomasi, M. Cossi, J. M. Millam, M. Klene, C. Adamo, R. Cammi, 
 J. W. Ochterski, R. L. Martin, K. Morokuma, O. Farkas, 
 J. B. Foresman, and D. J. Fox, Gaussian, Inc., Wallingford CT, 2016.
 
 ******************************************
 Gaussian 16:  ES64L-G16RevA.03 25-Dec-2016
                 7-May-2024 
 ******************************************
 %nprocshared=24
 Will use up to   24 processors via shared memory.
 %mem=20GB
 %oldchk=sp1_gs_pbe0.chk
 %chk=sp1_s1_pbe0.chk
 Copying data from "sp1_gs_pbe0.chk" to current chk file "sp1_s1_pbe0.chk"
 IOpt=  2 FromEx=T IUOpen= 4 IOptOp= 5 NList=   0 IFRang= 0 IUIn= 4 IUOut= 2.
 ----------------------------------------------------------------------
 #p PBE1PBE/def2TZVP EmpiricalDispersion=GD3BJ SCRF(PCM,Solvent=chlorof
 orm) TD(Singlets,NStates=5, root=1) opt guess=(read) geom=(allcheck) g
 finput
 ----------------------------------------------------------------------
 1/18=20,19=15,26=3,29=7,38=1/1,3;
 2/9=110,12=2,40=1/2;
 3/5=44,7=101,11=9,14=-4,24=10,25=1,30=1,70=2201,71=1,72=7,74=-13,116=-2,124=41/1,2,3,8;
 4/5=1/1;
 5/5=2,38=6,53=7/2;
 8/6=1,10=1,107=1,108=5/1;
 9/8=1,15=2,41=5,42=1,48=1,70=2/14;
 10/5=4,28=1/2;
 6/7=2,8=2,9=2,10=2/1;
 7/12=6,13=5,14=1/1,2,3,16;
 1/18=20,19=15,26=3/3(2);
 2/9=110/2;
 99//99;
 2/9=110/2;
 3/5=44,7=101,11=9,14=-2,25=1,30=1,70=2205,71=1,72=7,74=-13,124=41/1,2,3,8;
 4/5=5,16=3,69=1/1;
 5/5=2,38=5,53=7/2;
 8/6=1,10=1,107=1,108=5/1;
 9/8=1,15=2,41=5,42=1,48=1,49=4,70=2/14;
 10/5=4,28=1/2;
 7/12=6,13=5,14=1/1,2,3,16;
 1/18=20,19=15,26=3/3(-8);
 2/9=110/2;
 6/7=2,8=2,9=2,10=2/1;
 99//99;
 Leave Link    1 at Tue May  7 19:47:08 2024, MaxMem=  2684354560 cpu:              14.9 elap:               0.7
 (Enter /s/ls4/groups/g0130/bin/g16/l101.exe)
 Structure from the checkpoint file:  "sp1_s1_pbe0.chk"
 -----
 TITLE
 -----
 Charge =  0 Multiplicity = 1
 Redundant internal coordinates found in file.  (old form).
 C,0,-5.6024336794,1.4567997307,-1.4706575955
 C,0,-4.6990886952,0.8675534236,-0.5872864968
 C,0,-3.7190653072,1.6734263302,-0.0319447953
 C,0,-3.6286285541,3.0283808953,-0.3513659246
 C,0,-4.523406138,3.5992709209,-1.2271788925
 C,0,-5.5212098496,2.8027396872,-1.793456836
 H,0,-4.7634248008,-0.1885519199,-0.3556313666
 H,0,-6.2292567358,3.2362770051,-2.4894741216
 H,0,-6.3758062511,0.8438048044,-1.919684856
 H,0,-4.4550057411,4.6519835012,-1.4805639361
 N,0,-2.7223467256,1.3282667206,0.873217306
 C,0,-1.7069751961,2.3477415806,0.8421006021
 C,0,-2.5050608192,3.6373200326,0.4513485654
 C,0,-2.3562731543,-0.0486054773,1.0788945574
 H,0,-1.5895117295,-0.1050514032,1.851385985
 H,0,-1.9753275879,-0.5206935228,0.164366596
 C,0,-3.1073297813,4.2988999711,1.6943876123
 H,0,-3.665027587,3.5817168082,2.2999663678
 H,0,-3.7984810855,5.0814143727,1.3774429631
 H,0,-2.3343850232,4.761205454,2.3127630787
 C,0,-1.6572708283,4.6468597965,-0.3027237321
 H,0,-1.2964295034,4.247313435,-1.2488413611
 H,0,-0.7967243601,4.9515441794,0.2983740309
 H,0,-2.2510388199,5.5399334428,-0.5085127156
 O,0,-0.8238585738,2.0751517043,-0.2877198427
 C,0,0.3809193168,1.5284555987,-0.1430735753
 C,0,-0.9507906768,2.4195062067,2.1235629946
 C,0,0.3085699516,2.0031370961,2.2437927348
 C,0,1.023051078,1.4757113743,1.1044217876
 H,0,-1.5001943332,2.7818590336,2.9813644009
 H,0,0.8153431102,2.039469251,3.2018485432
 C,0,2.2942265076,0.9312022461,1.182617262
 C,0,1.0102065807,1.045772786,-1.2897830297
 C,0,2.2745793393,0.5062835044,-1.2018740555
 C,0,2.9046300657,0.4519272808,0.036226676
 H,0,2.8127610565,0.8799783254,2.1309399345
 H,0,0.4904189905,1.10413636,-2.2375667982
 H,0,2.7814017345,0.1249797646,-2.0772304488
 N,0,4.2326862228,-0.117175295,0.1299330656
 O,0,4.7627952246,-0.1591282758,1.2249196915
 O,0,4.7542960767,-0.5260231614,-0.8907799079
 H,0,-3.2226137719,-0.6136454357,1.4256616264
 Recover connectivity data from disk.
 ITRead=  0  0  0  0  0  0  0  0  0  0  0  0  0  0  0  0  0  0  0  0
 ITRead=  0  0  0  0  0  0  0  0  0  0  0  0  0  0  0  0  0  0  0  0
 ITRead=  0  0
 MicOpt= -1 -1 -1 -1 -1 -1 -1 -1 -1 -1 -1 -1 -1 -1 -1 -1 -1 -1 -1 -1
 MicOpt= -1 -1 -1 -1 -1 -1 -1 -1 -1 -1 -1 -1 -1 -1 -1 -1 -1 -1 -1 -1
 MicOpt= -1 -1
 NAtoms=     42 NQM=       42 NQMF=       0 NMMI=      0 NMMIF=      0
                NMic=       0 NMicF=      0.
                    Isotopes and Nuclear Properties:
 (Nuclear quadrupole moments (NQMom) in fm**2, nuclear magnetic moments (NMagM)
  in nuclear magnetons)

  Atom         1           2           3           4           5           6           7           8           9          10
 IAtWgt=          12          12          12          12          12          12           1           1           1           1
 AtmWgt=  12.0000000  12.0000000  12.0000000  12.0000000  12.0000000  12.0000000   1.0078250   1.0078250   1.0078250   1.0078250
 NucSpn=           0           0           0           0           0           0           1           1           1           1
 AtZEff=   3.6000000   3.6000000   3.6000000   3.6000000   3.6000000   3.6000000   1.0000000   1.0000000   1.0000000   1.0000000
 NQMom=    0.0000000   0.0000000   0.0000000   0.0000000   0.0000000   0.0000000   0.0000000   0.0000000   0.0000000   0.0000000
 NMagM=    0.0000000   0.0000000   0.0000000   0.0000000   0.0000000   0.0000000   2.7928460   2.7928460   2.7928460   2.7928460
 AtZNuc=   6.0000000   6.0000000   6.0000000   6.0000000   6.0000000   6.0000000   1.0000000   1.0000000   1.0000000   1.0000000

  Atom        11          12          13          14          15          16          17          18          19          20
 IAtWgt=          14          12          12          12           1           1          12           1           1           1
 AtmWgt=  14.0030740  12.0000000  12.0000000  12.0000000   1.0078250   1.0078250  12.0000000   1.0078250   1.0078250   1.0078250
 NucSpn=           2           0           0           0           1           1           0           1           1           1
 AtZEff=   4.5500000   3.6000000   3.6000000   3.6000000   1.0000000   1.0000000   3.6000000   1.0000000   1.0000000   1.0000000
 NQMom=    2.0440000   0.0000000   0.0000000   0.0000000   0.0000000   0.0000000   0.0000000   0.0000000   0.0000000   0.0000000
 NMagM=    0.4037610   0.0000000   0.0000000   0.0000000   2.7928460   2.7928460   0.0000000   2.7928460   2.7928460   2.7928460
 AtZNuc=   7.0000000   6.0000000   6.0000000   6.0000000   1.0000000   1.0000000   6.0000000   1.0000000   1.0000000   1.0000000

  Atom        21          22          23          24          25          26          27          28          29          30
 IAtWgt=          12           1           1           1          16          12          12          12          12           1
 AtmWgt=  12.0000000   1.0078250   1.0078250   1.0078250  15.9949146  12.0000000  12.0000000  12.0000000  12.0000000   1.0078250
 NucSpn=           0           1           1           1           0           0           0           0           0           1
 AtZEff=   3.6000000   1.0000000   1.0000000   1.0000000   5.6000000   3.6000000   3.6000000   3.6000000   3.6000000   1.0000000
 NQMom=    0.0000000   0.0000000   0.0000000   0.0000000   0.0000000   0.0000000   0.0000000   0.0000000   0.0000000   0.0000000
 NMagM=    0.0000000   2.7928460   2.7928460   2.7928460   0.0000000   0.0000000   0.0000000   0.0000000   0.0000000   2.7928460
 AtZNuc=   6.0000000   1.0000000   1.0000000   1.0000000   8.0000000   6.0000000   6.0000000   6.0000000   6.0000000   1.0000000

  Atom        31          32          33          34          35          36          37          38          39          40
 IAtWgt=           1          12          12          12          12           1           1           1          14          16
 AtmWgt=   1.0078250  12.0000000  12.0000000  12.0000000  12.0000000   1.0078250   1.0078250   1.0078250  14.0030740  15.9949146
 NucSpn=           1           0           0           0           0           1           1           1           2           0
 AtZEff=   1.0000000   3.6000000   3.6000000   3.6000000   3.6000000   1.0000000   1.0000000   1.0000000   4.5500000   5.6000000
 NQMom=    0.0000000   0.0000000   0.0000000   0.0000000   0.0000000   0.0000000   0.0000000   0.0000000   2.0440000   0.0000000
 NMagM=    2.7928460   0.0000000   0.0000000   0.0000000   0.0000000   2.7928460   2.7928460   2.7928460   0.4037610   0.0000000
 AtZNuc=   1.0000000   6.0000000   6.0000000   6.0000000   6.0000000   1.0000000   1.0000000   1.0000000   7.0000000   8.0000000

  Atom        41          42
 IAtWgt=          16           1
 AtmWgt=  15.9949146   1.0078250
 NucSpn=           0           1
 AtZEff=   5.6000000   1.0000000
 NQMom=    0.0000000   0.0000000
 NMagM=    0.0000000   2.7928460
 AtZNuc=   8.0000000   1.0000000
 Leave Link  101 at Tue May  7 19:47:08 2024, MaxMem=  2684354560 cpu:               7.5 elap:               0.3
 (Enter /s/ls4/groups/g0130/bin/g16/l103.exe)

 GradGradGradGradGradGradGradGradGradGradGradGradGradGradGradGradGradGrad
 Berny optimization.
 Initialization pass.
                           ----------------------------
                           !    Initial Parameters    !
                           ! (Angstroms and Degrees)  !
 --------------------------                            --------------------------
 ! Name  Definition              Value          Derivative Info.                !
 --------------------------------------------------------------------------------
 ! R1    R(1,2)                  1.3941         estimate D2E/DX2                !
 ! R2    R(1,6)                  1.3865         estimate D2E/DX2                !
 ! R3    R(1,9)                  1.0842         estimate D2E/DX2                !
 ! R4    R(2,3)                  1.385          estimate D2E/DX2                !
 ! R5    R(2,7)                  1.0831         estimate D2E/DX2                !
 ! R6    R(3,4)                  1.395          estimate D2E/DX2                !
 ! R7    R(3,11)                 1.3899         estimate D2E/DX2                !
 ! R8    R(4,5)                  1.3761         estimate D2E/DX2                !
 ! R9    R(4,13)                 1.5092         estimate D2E/DX2                !
 ! R10   R(5,6)                  1.3967         estimate D2E/DX2                !
 ! R11   R(5,10)                 1.0849         estimate D2E/DX2                !
 ! R12   R(6,8)                  1.0834         estimate D2E/DX2                !
 ! R13   R(11,12)                1.4392         estimate D2E/DX2                !
 ! R14   R(11,14)                1.4395         estimate D2E/DX2                !
 ! R15   R(12,13)                1.5661         estimate D2E/DX2                !
 ! R16   R(12,25)                1.4597         estimate D2E/DX2                !
 ! R17   R(12,27)                1.4897         estimate D2E/DX2                !
 ! R18   R(13,17)                1.5315         estimate D2E/DX2                !
 ! R19   R(13,21)                1.5187         estimate D2E/DX2                !
 ! R20   R(14,15)                1.0899         estimate D2E/DX2                !
 ! R21   R(14,16)                1.0974         estimate D2E/DX2                !
 ! R22   R(14,42)                1.0909         estimate D2E/DX2                !
 ! R23   R(17,18)                1.0918         estimate D2E/DX2                !
 ! R24   R(17,19)                1.0911         estimate D2E/DX2                !
 ! R25   R(17,20)                1.0925         estimate D2E/DX2                !
 ! R26   R(21,22)                1.0886         estimate D2E/DX2                !
 ! R27   R(21,23)                1.093          estimate D2E/DX2                !
 ! R28   R(21,24)                1.092          estimate D2E/DX2                !
 ! R29   R(25,26)                1.3309         estimate D2E/DX2                !
 ! R30   R(26,29)                1.4041         estimate D2E/DX2                !
 ! R31   R(26,33)                1.3942         estimate D2E/DX2                !
 ! R32   R(27,28)                1.3318         estimate D2E/DX2                !
 ! R33   R(27,30)                1.0812         estimate D2E/DX2                !
 ! R34   R(28,29)                1.4446         estimate D2E/DX2                !
 ! R35   R(28,31)                1.0844         estimate D2E/DX2                !
 ! R36   R(29,32)                1.3851         estimate D2E/DX2                !
 ! R37   R(32,35)                1.3844         estimate D2E/DX2                !
 ! R38   R(32,36)                1.082          estimate D2E/DX2                !
 ! R39   R(33,34)                1.3775         estimate D2E/DX2                !
 ! R40   R(33,37)                1.0825         estimate D2E/DX2                !
 ! R41   R(34,35)                1.3903         estimate D2E/DX2                !
 ! R42   R(34,38)                1.081          estimate D2E/DX2                !
 ! R43   R(35,39)                1.4479         estimate D2E/DX2                !
 ! R44   R(39,40)                1.2173         estimate D2E/DX2                !
 ! R45   R(39,41)                1.217          estimate D2E/DX2                !
 ! A1    A(2,1,6)              121.3232         estimate D2E/DX2                !
 ! A2    A(2,1,9)              119.0554         estimate D2E/DX2                !
 ! A3    A(6,1,9)              119.6182         estimate D2E/DX2                !
 ! A4    A(1,2,3)              117.8158         estimate D2E/DX2                !
 ! A5    A(1,2,7)              120.6073         estimate D2E/DX2                !
 ! A6    A(3,2,7)              121.5745         estimate D2E/DX2                !
 ! A7    A(2,3,4)              121.2784         estimate D2E/DX2                !
 ! A8    A(2,3,11)             128.6118         estimate D2E/DX2                !
 ! A9    A(4,3,11)             110.1097         estimate D2E/DX2                !
 ! A10   A(3,4,5)              120.4327         estimate D2E/DX2                !
 ! A11   A(3,4,13)             108.565          estimate D2E/DX2                !
 ! A12   A(5,4,13)             130.9372         estimate D2E/DX2                !
 ! A13   A(4,5,6)              119.0768         estimate D2E/DX2                !
 ! A14   A(4,5,10)             120.6768         estimate D2E/DX2                !
 ! A15   A(6,5,10)             120.2458         estimate D2E/DX2                !
 ! A16   A(1,6,5)              120.0713         estimate D2E/DX2                !
 ! A17   A(1,6,8)              119.9836         estimate D2E/DX2                !
 ! A18   A(5,6,8)              119.9444         estimate D2E/DX2                !
 ! A19   A(3,11,12)            108.4174         estimate D2E/DX2                !
 ! A20   A(3,11,14)            120.8602         estimate D2E/DX2                !
 ! A21   A(12,11,14)           120.0813         estimate D2E/DX2                !
 ! A22   A(11,12,13)           103.2474         estimate D2E/DX2                !
 ! A23   A(11,12,25)           108.137          estimate D2E/DX2                !
 ! A24   A(11,12,27)           111.9415         estimate D2E/DX2                !
 ! A25   A(13,12,25)           105.6025         estimate D2E/DX2                !
 ! A26   A(13,12,27)           115.6995         estimate D2E/DX2                !
 ! A27   A(25,12,27)           111.5749         estimate D2E/DX2                !
 ! A28   A(4,13,12)            100.3615         estimate D2E/DX2                !
 ! A29   A(4,13,17)            108.2541         estimate D2E/DX2                !
 ! A30   A(4,13,21)            114.8167         estimate D2E/DX2                !
 ! A31   A(12,13,17)           110.7074         estimate D2E/DX2                !
 ! A32   A(12,13,21)           112.7538         estimate D2E/DX2                !
 ! A33   A(17,13,21)           109.5947         estimate D2E/DX2                !
 ! A34   A(11,14,15)           109.2521         estimate D2E/DX2                !
 ! A35   A(11,14,16)           112.3755         estimate D2E/DX2                !
 ! A36   A(11,14,42)           109.8092         estimate D2E/DX2                !
 ! A37   A(15,14,16)           108.9149         estimate D2E/DX2                !
 ! A38   A(15,14,42)           107.8531         estimate D2E/DX2                !
 ! A39   A(16,14,42)           108.5271         estimate D2E/DX2                !
 ! A40   A(13,17,18)           111.5485         estimate D2E/DX2                !
 ! A41   A(13,17,19)           108.8531         estimate D2E/DX2                !
 ! A42   A(13,17,20)           111.3444         estimate D2E/DX2                !
 ! A43   A(18,17,19)           107.9777         estimate D2E/DX2                !
 ! A44   A(18,17,20)           108.9901         estimate D2E/DX2                !
 ! A45   A(19,17,20)           108.005          estimate D2E/DX2                !
 ! A46   A(13,21,22)           111.8761         estimate D2E/DX2                !
 ! A47   A(13,21,23)           110.5935         estimate D2E/DX2                !
 ! A48   A(13,21,24)           109.4917         estimate D2E/DX2                !
 ! A49   A(22,21,23)           108.6212         estimate D2E/DX2                !
 ! A50   A(22,21,24)           108.4588         estimate D2E/DX2                !
 ! A51   A(23,21,24)           107.6833         estimate D2E/DX2                !
 ! A52   A(12,25,26)           122.7012         estimate D2E/DX2                !
 ! A53   A(25,26,29)           121.7355         estimate D2E/DX2                !
 ! A54   A(25,26,33)           117.4771         estimate D2E/DX2                !
 ! A55   A(29,26,33)           120.7522         estimate D2E/DX2                !
 ! A56   A(12,27,28)           122.86           estimate D2E/DX2                !
 ! A57   A(12,27,30)           116.1485         estimate D2E/DX2                !
 ! A58   A(28,27,30)           120.907          estimate D2E/DX2                !
 ! A59   A(27,28,29)           120.7049         estimate D2E/DX2                !
 ! A60   A(27,28,31)           120.7411         estimate D2E/DX2                !
 ! A61   A(29,28,31)           118.5484         estimate D2E/DX2                !
 ! A62   A(26,29,28)           117.4426         estimate D2E/DX2                !
 ! A63   A(26,29,32)           118.9899         estimate D2E/DX2                !
 ! A64   A(28,29,32)           123.5673         estimate D2E/DX2                !
 ! A65   A(29,32,35)           119.6042         estimate D2E/DX2                !
 ! A66   A(29,32,36)           120.5235         estimate D2E/DX2                !
 ! A67   A(35,32,36)           119.8721         estimate D2E/DX2                !
 ! A68   A(26,33,34)           119.8274         estimate D2E/DX2                !
 ! A69   A(26,33,37)           118.9927         estimate D2E/DX2                !
 ! A70   A(34,33,37)           121.1799         estimate D2E/DX2                !
 ! A71   A(33,34,35)           119.2177         estimate D2E/DX2                !
 ! A72   A(33,34,38)           121.1201         estimate D2E/DX2                !
 ! A73   A(35,34,38)           119.6621         estimate D2E/DX2                !
 ! A74   A(32,35,34)           121.6078         estimate D2E/DX2                !
 ! A75   A(32,35,39)           119.1378         estimate D2E/DX2                !
 ! A76   A(34,35,39)           119.2542         estimate D2E/DX2                !
 ! A77   A(35,39,40)           118.1127         estimate D2E/DX2                !
 ! A78   A(35,39,41)           118.0924         estimate D2E/DX2                !
 ! A79   A(40,39,41)           123.795          estimate D2E/DX2                !
 ! D1    D(6,1,2,3)              0.4475         estimate D2E/DX2                !
 ! D2    D(6,1,2,7)           -179.0048         estimate D2E/DX2                !
 ! D3    D(9,1,2,3)            179.7973         estimate D2E/DX2                !
 ! D4    D(9,1,2,7)              0.3449         estimate D2E/DX2                !
 ! D5    D(2,1,6,5)             -0.2431         estimate D2E/DX2                !
 ! D6    D(2,1,6,8)            179.4501         estimate D2E/DX2                !
 ! D7    D(9,1,6,5)           -179.5892         estimate D2E/DX2                !
 ! D8    D(9,1,6,8)              0.104          estimate D2E/DX2                !
 ! D9    D(1,2,3,4)             -0.4975         estimate D2E/DX2                !
 ! D10   D(1,2,3,11)           179.3734         estimate D2E/DX2                !
 ! D11   D(7,2,3,4)            178.9492         estimate D2E/DX2                !
 ! D12   D(7,2,3,11)            -1.1798         estimate D2E/DX2                !
 ! D13   D(2,3,4,5)              0.3464         estimate D2E/DX2                !
 ! D14   D(2,3,4,13)           177.7207         estimate D2E/DX2                !
 ! D15   D(11,3,4,5)          -179.5462         estimate D2E/DX2                !
 ! D16   D(11,3,4,13)           -2.1719         estimate D2E/DX2                !
 ! D17   D(2,3,11,12)          162.1165         estimate D2E/DX2                !
 ! D18   D(2,3,11,14)           17.589          estimate D2E/DX2                !
 ! D19   D(4,3,11,12)          -18.0009         estimate D2E/DX2                !
 ! D20   D(4,3,11,14)         -162.5284         estimate D2E/DX2                !
 ! D21   D(3,4,5,6)             -0.1249         estimate D2E/DX2                !
 ! D22   D(3,4,5,10)          -179.8249         estimate D2E/DX2                !
 ! D23   D(13,4,5,6)          -176.8293         estimate D2E/DX2                !
 ! D24   D(13,4,5,10)            3.4707         estimate D2E/DX2                !
 ! D25   D(3,4,13,12)           19.1056         estimate D2E/DX2                !
 ! D26   D(3,4,13,17)          -96.9225         estimate D2E/DX2                !
 ! D27   D(3,4,13,21)          140.2861         estimate D2E/DX2                !
 ! D28   D(5,4,13,12)         -163.8916         estimate D2E/DX2                !
 ! D29   D(5,4,13,17)           80.0803         estimate D2E/DX2                !
 ! D30   D(5,4,13,21)          -42.7111         estimate D2E/DX2                !
 ! D31   D(4,5,6,1)              0.075          estimate D2E/DX2                !
 ! D32   D(4,5,6,8)           -179.6183         estimate D2E/DX2                !
 ! D33   D(10,5,6,1)           179.7764         estimate D2E/DX2                !
 ! D34   D(10,5,6,8)             0.0831         estimate D2E/DX2                !
 ! D35   D(3,11,12,13)          29.3732         estimate D2E/DX2                !
 ! D36   D(3,11,12,25)         -82.2116         estimate D2E/DX2                !
 ! D37   D(3,11,12,27)         154.4821         estimate D2E/DX2                !
 ! D38   D(14,11,12,13)        174.2253         estimate D2E/DX2                !
 ! D39   D(14,11,12,25)         62.6406         estimate D2E/DX2                !
 ! D40   D(14,11,12,27)        -60.6657         estimate D2E/DX2                !
 ! D41   D(3,11,14,15)        -177.7792         estimate D2E/DX2                !
 ! D42   D(3,11,14,16)          61.2166         estimate D2E/DX2                !
 ! D43   D(3,11,14,42)         -59.6822         estimate D2E/DX2                !
 ! D44   D(12,11,14,15)         41.7363         estimate D2E/DX2                !
 ! D45   D(12,11,14,16)        -79.268          estimate D2E/DX2                !
 ! D46   D(12,11,14,42)        159.8333         estimate D2E/DX2                !
 ! D47   D(11,12,13,4)         -28.5862         estimate D2E/DX2                !
 ! D48   D(11,12,13,17)         85.5893         estimate D2E/DX2                !
 ! D49   D(11,12,13,21)       -151.2269         estimate D2E/DX2                !
 ! D50   D(25,12,13,4)          84.853          estimate D2E/DX2                !
 ! D51   D(25,12,13,17)       -160.9715         estimate D2E/DX2                !
 ! D52   D(25,12,13,21)        -37.7876         estimate D2E/DX2                !
 ! D53   D(27,12,13,4)        -151.2231         estimate D2E/DX2                !
 ! D54   D(27,12,13,17)        -37.0477         estimate D2E/DX2                !
 ! D55   D(27,12,13,21)         86.1362         estimate D2E/DX2                !
 ! D56   D(11,12,25,26)       -102.7988         estimate D2E/DX2                !
 ! D57   D(13,12,25,26)        147.2124         estimate D2E/DX2                !
 ! D58   D(27,12,25,26)         20.7292         estimate D2E/DX2                !
 ! D59   D(11,12,27,28)        108.0153         estimate D2E/DX2                !
 ! D60   D(11,12,27,30)        -68.6652         estimate D2E/DX2                !
 ! D61   D(13,12,27,28)       -134.0775         estimate D2E/DX2                !
 ! D62   D(13,12,27,30)         49.242          estimate D2E/DX2                !
 ! D63   D(25,12,27,28)        -13.3286         estimate D2E/DX2                !
 ! D64   D(25,12,27,30)        169.9909         estimate D2E/DX2                !
 ! D65   D(4,13,17,18)          58.2079         estimate D2E/DX2                !
 ! D66   D(4,13,17,19)         -60.8368         estimate D2E/DX2                !
 ! D67   D(4,13,17,20)        -179.7911         estimate D2E/DX2                !
 ! D68   D(12,13,17,18)        -50.888          estimate D2E/DX2                !
 ! D69   D(12,13,17,19)       -169.9327         estimate D2E/DX2                !
 ! D70   D(12,13,17,20)         71.113          estimate D2E/DX2                !
 ! D71   D(21,13,17,18)       -175.8804         estimate D2E/DX2                !
 ! D72   D(21,13,17,19)         65.0749         estimate D2E/DX2                !
 ! D73   D(21,13,17,20)        -53.8794         estimate D2E/DX2                !
 ! D74   D(4,13,21,22)         -51.8775         estimate D2E/DX2                !
 ! D75   D(4,13,21,23)        -173.1054         estimate D2E/DX2                !
 ! D76   D(4,13,21,24)          68.391          estimate D2E/DX2                !
 ! D77   D(12,13,21,22)         62.2535         estimate D2E/DX2                !
 ! D78   D(12,13,21,23)        -58.9744         estimate D2E/DX2                !
 ! D79   D(12,13,21,24)       -177.478          estimate D2E/DX2                !
 ! D80   D(17,13,21,22)       -173.9455         estimate D2E/DX2                !
 ! D81   D(17,13,21,23)         64.8266         estimate D2E/DX2                !
 ! D82   D(17,13,21,24)        -53.677          estimate D2E/DX2                !
 ! D83   D(12,25,26,29)        -15.9367         estimate D2E/DX2                !
 ! D84   D(12,25,26,33)        166.2042         estimate D2E/DX2                !
 ! D85   D(25,26,29,28)          1.8477         estimate D2E/DX2                !
 ! D86   D(25,26,29,32)       -178.0069         estimate D2E/DX2                !
 ! D87   D(33,26,29,28)        179.6374         estimate D2E/DX2                !
 ! D88   D(33,26,29,32)         -0.2172         estimate D2E/DX2                !
 ! D89   D(25,26,33,34)        178.0889         estimate D2E/DX2                !
 ! D90   D(25,26,33,37)         -1.8788         estimate D2E/DX2                !
 ! D91   D(29,26,33,34)          0.2076         estimate D2E/DX2                !
 ! D92   D(29,26,33,37)       -179.7601         estimate D2E/DX2                !
 ! D93   D(12,27,28,29)          1.2698         estimate D2E/DX2                !
 ! D94   D(12,27,28,31)       -177.8552         estimate D2E/DX2                !
 ! D95   D(30,27,28,29)        177.7966         estimate D2E/DX2                !
 ! D96   D(30,27,28,31)         -1.3283         estimate D2E/DX2                !
 ! D97   D(27,28,29,26)          5.3547         estimate D2E/DX2                !
 ! D98   D(27,28,29,32)       -174.7979         estimate D2E/DX2                !
 ! D99   D(31,28,29,26)       -175.5015         estimate D2E/DX2                !
 ! D100  D(31,28,29,32)          4.3459         estimate D2E/DX2                !
 ! D101  D(26,29,32,35)          0.0034         estimate D2E/DX2                !
 ! D102  D(26,29,32,36)        179.8759         estimate D2E/DX2                !
 ! D103  D(28,29,32,35)       -179.8418         estimate D2E/DX2                !
 ! D104  D(28,29,32,36)          0.0308         estimate D2E/DX2                !
 ! D105  D(29,32,35,34)          0.2235         estimate D2E/DX2                !
 ! D106  D(29,32,35,39)       -179.9003         estimate D2E/DX2                !
 ! D107  D(36,32,35,34)       -179.6499         estimate D2E/DX2                !
 ! D108  D(36,32,35,39)          0.2263         estimate D2E/DX2                !
 ! D109  D(26,33,34,35)          0.0165         estimate D2E/DX2                !
 ! D110  D(26,33,34,38)        179.9314         estimate D2E/DX2                !
 ! D111  D(37,33,34,35)        179.9835         estimate D2E/DX2                !
 ! D112  D(37,33,34,38)         -0.1016         estimate D2E/DX2                !
 ! D113  D(33,34,35,32)         -0.234          estimate D2E/DX2                !
 ! D114  D(33,34,35,39)        179.8899         estimate D2E/DX2                !
 ! D115  D(38,34,35,32)        179.8499         estimate D2E/DX2                !
 ! D116  D(38,34,35,39)         -0.0263         estimate D2E/DX2                !
 ! D117  D(32,35,39,40)          0.4023         estimate D2E/DX2                !
 ! D118  D(32,35,39,41)       -179.6038         estimate D2E/DX2                !
 ! D119  D(34,35,39,40)       -179.7185         estimate D2E/DX2                !
 ! D120  D(34,35,39,41)          0.2754         estimate D2E/DX2                !
 --------------------------------------------------------------------------------
 Trust Radius=3.00D-01 FncErr=1.00D-07 GrdErr=1.00D-06 EigMax=2.50D+02 EigMin=1.00D-04
 Number of steps in this run=    252 maximum allowed number of steps=    252.
 GradGradGradGradGradGradGradGradGradGradGradGradGradGradGradGradGradGrad

 Leave Link  103 at Tue May  7 19:47:08 2024, MaxMem=  2684354560 cpu:               0.7 elap:               0.1
 (Enter /s/ls4/groups/g0130/bin/g16/l202.exe)
                          Input orientation:                          
 ---------------------------------------------------------------------
 Center     Atomic      Atomic             Coordinates (Angstroms)
 Number     Number       Type             X           Y           Z
 ---------------------------------------------------------------------
      1          6           0       -5.602434    1.456800   -1.470658
      2          6           0       -4.699089    0.867553   -0.587286
      3          6           0       -3.719065    1.673426   -0.031945
      4          6           0       -3.628629    3.028381   -0.351366
      5          6           0       -4.523406    3.599271   -1.227179
      6          6           0       -5.521210    2.802740   -1.793457
      7          1           0       -4.763425   -0.188552   -0.355631
      8          1           0       -6.229257    3.236277   -2.489474
      9          1           0       -6.375806    0.843805   -1.919685
     10          1           0       -4.455006    4.651984   -1.480564
     11          7           0       -2.722347    1.328267    0.873217
     12          6           0       -1.706975    2.347742    0.842101
     13          6           0       -2.505061    3.637320    0.451349
     14          6           0       -2.356273   -0.048605    1.078895
     15          1           0       -1.589512   -0.105051    1.851386
     16          1           0       -1.975328   -0.520694    0.164367
     17          6           0       -3.107330    4.298900    1.694388
     18          1           0       -3.665028    3.581717    2.299966
     19          1           0       -3.798481    5.081414    1.377443
     20          1           0       -2.334385    4.761205    2.312763
     21          6           0       -1.657271    4.646860   -0.302724
     22          1           0       -1.296430    4.247313   -1.248841
     23          1           0       -0.796724    4.951544    0.298374
     24          1           0       -2.251039    5.539933   -0.508513
     25          8           0       -0.823859    2.075152   -0.287720
     26          6           0        0.380919    1.528456   -0.143074
     27          6           0       -0.950791    2.419506    2.123563
     28          6           0        0.308570    2.003137    2.243793
     29          6           0        1.023051    1.475711    1.104422
     30          1           0       -1.500194    2.781859    2.981364
     31          1           0        0.815343    2.039469    3.201849
     32          6           0        2.294227    0.931202    1.182617
     33          6           0        1.010207    1.045773   -1.289783
     34          6           0        2.274579    0.506284   -1.201874
     35          6           0        2.904630    0.451927    0.036227
     36          1           0        2.812761    0.879978    2.130940
     37          1           0        0.490419    1.104136   -2.237567
     38          1           0        2.781402    0.124980   -2.077230
     39          7           0        4.232686   -0.117175    0.129933
     40          8           0        4.762795   -0.159128    1.224920
     41          8           0        4.754296   -0.526023   -0.890780
     42          1           0       -3.222614   -0.613645    1.425662
 ---------------------------------------------------------------------
                    Distance matrix (angstroms):
                    1          2          3          4          5
     1  C    0.000000
     2  C    1.394126   0.000000
     3  C    2.379895   1.385020   0.000000
     4  C    2.760179   2.422957   1.395031   0.000000
     5  C    2.411175   2.811158   2.405083   1.376078   0.000000
     6  C    1.386489   2.423979   2.761521   2.390064   1.396691
     7  H    2.157406   1.083126   2.159264   3.411222   3.894202
     8  H    2.144163   3.401556   3.844868   3.373128   2.152924
     9  H    1.084202   2.141782   3.363050   3.844344   3.391688
    10  H    3.394980   3.896079   3.392920   2.143379   1.084936
    11  N    3.715531   2.500567   1.389929   2.282836   3.579517
    12  C    4.617058   3.631370   2.295030   2.362284   3.712213
    13  C    4.247646   3.682951   2.358868   1.509159   2.625380
    14  C    4.393634   3.017332   2.461008   3.623862   4.829228
    15  H    5.438648   4.069712   3.353344   4.339183   5.639796
    16  H    4.442936   3.148188   2.809506   3.949090   5.040160
    17  C    4.931591   4.417451   3.201180   2.463956   3.321190
    18  H    4.741985   4.095387   3.013686   2.708702   3.630134
    19  H    4.950127   4.735808   3.688775   2.689345   3.083232
    20  H    5.992788   5.400244   4.116962   3.431520   4.321238
    21  C    5.206233   4.859711   3.628447   2.551096   3.188541
    22  H    5.135936   4.841335   3.738301   2.780362   3.291475
    23  H    6.199803   5.717676   4.404003   3.484308   4.247836
    24  H    5.369316   5.275442   4.163183   2.868858   3.073484
    25  O    4.961500   4.070067   2.934114   2.963011   4.110009
    26  C    6.129284   5.142042   4.104052   4.285981   5.432860
    27  C    5.956762   4.879242   3.586948   3.696866   5.038144
    28  C    7.002542   5.863549   4.637837   4.825713   6.159812
    29  C    7.108336   5.997884   4.880378   5.115489   6.380365
    30  H    6.197149   5.160694   3.902825   3.962082   5.245933
    31  H    7.959879   6.792635   5.581422   5.775133   7.109958
    32  C    8.347057   7.214088   6.179461   6.467726   7.707517
    33  C    6.627871   5.755112   4.933773   5.131292   6.094681
    34  C    7.938706   7.010013   6.217293   6.475508   7.468589
    35  C    8.697735   7.640553   6.735729   7.033620   8.165641
    36  H    9.171681   7.988542   6.926210   7.229729   8.514157
    37  H    6.151047   5.450723   4.786295   4.922095   5.690784
    38  H    8.510603   7.663490   6.988344   7.245470   8.133480
    39  N   10.088056   9.014472   8.152473   8.480946   9.608480
    40  O   10.831220   9.688416   8.768120   9.113774  10.313675
    41  O   10.560762   9.560369   8.796194   9.121304  10.159083
    42  H    4.282400   2.902738   2.757132   4.072718   5.145706
                    6          7          8          9         10
     6  C    0.000000
     7  H    3.404322   0.000000
     8  H    1.083386   4.293181   0.000000
     9  H    2.140956   2.472205   2.463749   0.000000
    10  H    2.157405   4.979094   2.483967   4.287718   0.000000
    11  N    4.137494   2.824324   5.219829   4.624151   4.426001
    12  C    4.658495   4.148401   5.686819   5.629145   4.272701
    13  C    3.851341   4.515387   4.762238   5.329934   2.926451
    14  C    5.137840   2.805678   6.206747   5.093576   5.749004
    15  H    6.099047   3.866733   7.178773   6.166840   6.476290
    16  H    5.239424   2.855556   6.265270   5.056613   5.967511
    17  C    4.497819   5.204080   5.327316   5.973453   3.467163
    18  H    4.561615   4.740633   5.443651   5.714013   4.007736
    19  H    4.267875   5.630915   4.926079   5.955753   2.963720
    20  H    5.554501   6.125411   6.368431   7.042211   4.347217
    21  C    4.533551   5.747364   5.260673   6.272349   3.035565
    22  H    4.498018   5.700419   5.185957   6.150932   3.192813
    23  H    5.595881   6.525567   6.342448   7.274576   4.078894
    24  H    4.453912   6.257076   5.005723   6.407709   2.567257
    25  O    4.986155   4.544133   5.950988   5.916388   4.609574
    26  C    6.259608   5.427483   7.219188   7.019860   5.910286
    27  C    6.031471   5.242571   7.057580   6.947048   5.500292
    28  C    7.136181   6.106197   8.165025   7.959867   6.601430
    29  C    7.279152   6.195549   8.283215   8.017956   6.839588
    30  H    6.242429   5.532410   7.245730   7.179689   5.668958
    31  H    8.104786   6.981575   9.135091   8.909116   7.518430
    32  C    8.569756   7.309617   9.562813   9.208767   8.154072
    33  C    6.782332   5.977543   7.658159   7.415575   6.550550
    34  C    8.148497   7.122670   9.023636   8.686676   7.908970
    35  C    8.936937   7.704728   9.877229   9.492400   8.608447
    36  H    9.410259   8.045085  10.423937  10.041844   8.949381
    37  H    6.262760   5.728490   7.054327   6.878508   6.133311
    38  H    8.728361   7.745103   9.541597   9.186729   8.556598
    39  N   10.361651   9.009488  11.294210  10.847328  10.040646
    40  O   11.119533   9.656494  12.089281  11.617351  10.744035
    41  O   10.838889   9.538725  11.719606  11.261183  10.581627
    42  H    5.226658   2.393284   6.260199   4.822668   6.139364
                   11         12         13         14         15
    11  N    0.000000
    12  C    1.439193   0.000000
    13  C    2.357311   1.566091   0.000000
    14  C    1.439476   2.494021   3.741924   0.000000
    15  H    2.072325   2.654929   4.099229   1.089886   0.000000
    16  H    2.116403   2.959604   4.201435   1.097428   1.779788
    17  C    3.105993   2.548412   1.531523   4.454629   4.660816
    18  H    2.828833   2.735331   2.183118   4.047604   4.254556
    19  H    3.936804   3.483383   2.148487   5.337246   5.657172
    20  H    3.742710   2.895047   2.181081   4.965601   4.944508
    21  C    3.678353   2.568859   1.518731   4.944175   5.217800
    22  H    3.880362   2.854638   2.173368   4.999654   5.351671
    23  H    4.143260   2.811402   2.160787   5.295555   5.348786
    24  H    4.457516   3.508597   2.146112   5.810568   6.154071
    25  O    2.347311   1.459690   2.411023   2.954027   3.148854
    26  C    3.271572   2.449715   3.623469   3.387115   3.244813
    27  C    2.427463   1.489668   2.587494   3.026266   2.618289
    28  C    3.394169   2.479096   3.714825   3.559217   2.863766
    29  C    3.755423   2.877897   4.188870   3.707294   3.143605
    30  H    2.837406   2.192639   2.853515   3.516218   3.101464
    31  H    4.294599   3.467785   4.598202   4.350418   3.493715
    32  C    5.041765   4.258186   5.557966   4.753728   4.074861
    33  C    4.323231   3.690952   4.701570   4.259282   4.236729
    34  C    5.472744   4.839584   5.948235   5.191782   4.962593
    35  C    5.755987   5.050787   6.291566   5.386538   4.878764
    36  H    5.693878   4.923764   6.221189   5.356116   4.519783
    37  H    4.477619   3.982392   4.756068   4.520109   4.744237
    38  H    6.359582   5.797300   6.832052   6.032160   5.881482
    39  N    7.142427   6.470129   7.719895   6.657298   6.071370
    40  O    7.639593   6.949020   8.236089   7.121424   6.383352
    41  O    7.902548   7.280757   8.475435   7.393764   6.923914
    42  H    2.080020   3.377502   4.419828   1.090900   1.762649
                   16         17         18         19         20
    16  H    0.000000
    17  C    5.181783   0.000000
    18  H    4.923986   1.091835   0.000000
    19  H    6.014903   1.091088   1.765772   0.000000
    20  H    5.713404   1.092501   1.778192   1.766617   0.000000
    21  C    5.198359   2.492429   3.455374   2.756189   2.704132
    22  H    5.019158   3.456099   4.318253   3.722010   3.745192
    23  H    5.599326   2.777354   3.756323   3.192460   2.541337
    24  H    6.104096   2.669488   3.704259   2.482266   2.927962
    25  O    2.875530   3.753405   4.127723   4.545191   4.032256
    26  C    3.137743   4.818662   5.153059   5.692352   4.884126
    27  C    3.678709   2.892572   2.957860   3.968853   2.726479
    28  C    3.988724   4.152198   4.276043   5.205211   3.820590
    29  C    3.722850   5.037708   5.276615   6.026841   4.850457
    30  H    4.366701   2.557461   2.406362   3.625278   2.249603
    31  H    4.854747   4.771250   4.823447   5.819730   4.256655
    32  C    4.623195   6.385930   6.617130   7.374504   6.113117
    33  C    3.671755   6.036739   6.416785   6.820849   6.161905
    34  C    4.580721   7.192859   7.549842   8.029120   7.190243
    35  C    4.977590   7.327507   7.621056   8.256071   7.155402
    36  H    5.362377   6.850334   7.020663   7.869456   6.449038
    37  H    3.806476   6.213741   6.632899   6.876169   6.485304
    38  H    5.297936   8.143947   8.524396   8.932853   8.181559
    39  N    6.221210   8.707759   8.986920   9.647863   8.466981
    40  O    6.830652   9.057223   9.283202  10.039024   8.704198
    41  O    6.811842   9.579569   9.896434  10.475600   9.405683
    42  H    1.776296   4.921240   4.308271   5.724304   5.519504
                   21         22         23         24         25
    21  C    0.000000
    22  H    1.088569   0.000000
    23  H    1.093019   1.771870   0.000000
    24  H    1.092012   1.769246   1.764171   0.000000
    25  O    2.703421   2.421851   2.935622   3.753706   0.000000
    26  C    3.728827   3.380593   3.646815   4.811726   1.330898
    27  C    3.368544   3.851423   3.125103   4.284336   2.439052
    28  C    4.163958   4.450937   3.701275   5.160980   2.774191
    29  C    4.384104   4.312727   4.005335   5.462520   2.389239
    30  H    3.779965   4.481486   3.521483   4.511096   3.412298
    31  H    5.019396   5.398407   4.416911   5.951700   3.855560
    32  C    5.623760   5.459065   5.147719   6.690274   3.632212
    33  C    4.588851   3.946151   4.587188   5.607458   2.329710
    34  C    5.780336   5.172003   5.607494   6.804381   3.591287
    35  C    6.206713   5.805623   5.832264   7.263984   4.079390
    36  H    6.331927   6.296611   5.741457   7.370479   4.528063
    37  H    4.572426   3.748329   4.784379   5.493771   2.544032
    38  H    6.580128   5.857352   6.460821   7.556987   4.472518
    39  N    7.587807   7.177806   7.142497   8.628394   5.527149
    40  O    8.163851   7.889894   7.608266   9.202063   6.204094
    41  O    8.259099   7.715195   7.888705   9.274517   6.184303
    42  H    5.754175   5.872995   6.174711   6.523153   3.989904
                   26         27         28         29         30
    26  C    0.000000
    27  C    2.775800   0.000000
    28  C    2.434684   1.331844   0.000000
    29  C    1.404051   2.413597   1.444586   0.000000
    30  H    3.856387   1.081188   2.102867   3.405246   0.000000
    31  H    3.411505   2.103891   1.084440   2.181780   2.441612
    32  C    2.403105   3.691959   2.493586   1.385096   4.588905
    33  C    1.394248   4.169363   3.727600   2.432535   5.249648
    34  C    2.398300   5.012182   4.240092   2.797341   6.076730
    35  C    2.749578   4.805477   3.744213   2.393640   5.788341
    36  H    3.391978   4.066266   2.746852   2.147487   4.789776
    37  H    2.139846   4.777733   4.574260   3.404505   5.832198
    38  H    3.387185   6.069660   5.321054   3.878039   7.140060
    39  N    4.197469   6.105550   4.935870   3.713310   7.028583
    40  O    4.890826   6.332612   5.055059   4.083247   7.138595
    41  O    4.889414   7.092984   5.998890   4.680808   8.065621
    42  H    4.476045   3.853343   4.470587   4.742813   4.112954
                   31         32         33         34         35
    31  H    0.000000
    32  C    2.737270   0.000000
    33  C    4.604363   2.788296   0.000000
    34  C    4.885980   2.422136   1.377467   0.000000
    35  C    4.111760   1.384380   2.387424   1.390256   0.000000
    36  H    2.545770   1.082043   3.870147   3.396607   2.139975
    37  H    5.528803   3.870567   1.082534   2.147863   3.379930
    38  H    5.949734   3.393220   2.145942   1.080977   2.142144
    39  N    5.076023   2.442307   3.708425   2.448794   1.447892
    40  O    4.931983   2.698970   4.675194   3.538830   2.288921
    41  O    6.232713   3.531915   4.080190   2.703966   2.288448
    42  H    5.147713   5.734209   5.295666   6.194943   6.372526
                   36         37         38         39         40
    36  H    0.000000
    37  H    4.952512   0.000000
    38  H    4.275477   2.496609   0.000000
    39  N    2.648496   4.593607   2.652628   0.000000
    40  O    2.388147   5.642504   3.861455   1.217280   0.000000
    41  O    3.857096   4.759402   2.392443   1.217000   2.147293
    42  H    6.257322   5.491505   6.990281   7.583330   8.000852
                   41         42
    41  O    0.000000
    42  H    8.306905   0.000000
 Stoichiometry    C19H18N2O3
 Framework group  C1[X(C19H18N2O3)]
 Deg. of freedom   120
 Full point group                 C1      NOp   1
 RotChk:  IX=2 Diff= 1.47D-15
 Largest Abelian subgroup         C1      NOp   1
 Largest concise Abelian subgroup C1      NOp   1
                         Standard orientation:                         
 ---------------------------------------------------------------------
 Center     Atomic      Atomic             Coordinates (Angstroms)
 Number     Number       Type             X           Y           Z
 ---------------------------------------------------------------------
      1          6           0        4.602524   -2.121107   -0.346629
      2          6           0        3.500123   -1.739460   -1.109941
      3          6           0        2.771453   -0.639736   -0.688125
      4          6           0        3.119316    0.059599    0.467744
      5          6           0        4.207459   -0.327641    1.215795
      6          6           0        4.956664   -1.431754    0.803036
      7          1           0        3.224426   -2.296044   -1.997278
      8          1           0        5.812433   -1.752626    1.384780
      9          1           0        5.185292   -2.981210   -0.656625
     10          1           0        4.479884    0.211646    2.116928
     11          7           0        1.652572   -0.062738   -1.277259
     12          6           0        0.998586    0.764456   -0.297805
     13          6           0        2.176250    1.227273    0.624989
     14          6           0        0.872761   -0.786358   -2.246980
     15          1           0        0.069626   -0.146427   -2.612103
     16          1           0        0.435965   -1.703405   -1.831550
     17          6           0        2.856251    2.473777    0.051065
     18          1           0        3.124091    2.337106   -0.998548
     19          1           0        3.773368    2.664285    0.610596
     20          1           0        2.215689    3.354018    0.142794
     21          6           0        1.732282    1.500464    2.051454
     22          1           0        1.338892    0.606464    2.532069
     23          1           0        0.962068    2.275715    2.072584
     24          1           0        2.582053    1.861148    2.634796
     25          8           0        0.161014   -0.093240    0.534976
     26          6           0       -1.159972   -0.167085    0.390642
     27          6           0        0.206432    1.855875   -0.930584
     28          6           0       -1.125163    1.861119   -0.955784
     29          6           0       -1.878903    0.797686   -0.333039
     30          1           0        0.774311    2.631226   -1.425873
     31          1           0       -1.666986    2.656102   -1.456224
     32          6           0       -3.257375    0.687994   -0.412261
     33          6           0       -1.818675   -1.219106    1.025692
     34          6           0       -3.189886   -1.319492    0.941322
     35          6           0       -3.897127   -0.364493    0.219797
     36          1           0       -3.836145    1.418703   -0.961722
     37          1           0       -1.236594   -1.944804    1.579247
     38          1           0       -3.721733   -2.127042    1.424553
     39          7           0       -5.338243   -0.470597    0.128591
     40          8           0       -5.936118    0.373844   -0.512688
     41          8           0       -5.881662   -1.399093    0.697518
     42          1           0        1.499172   -1.055665   -3.098535
 ---------------------------------------------------------------------
 Rotational constants (GHZ):           0.6138324           0.1292343           0.1232253
 Leave Link  202 at Tue May  7 19:47:09 2024, MaxMem=  2684354560 cpu:               0.5 elap:               0.0
 (Enter /s/ls4/groups/g0130/bin/g16/l301.exe)
 Standard basis: def2TZVP (5D, 7F)
 Ernie: Thresh=  0.10000D-02 Tol=  0.10000D-05 Strict=F.
 AO basis set in the form of general basis input (Overlap normalization):
      1 0
 S   6 1.00       0.000000000000
      0.1357534968D+05  0.6064550360D-03
      0.2035233368D+04  0.4697908888D-02
      0.4632256236D+03  0.2433247765D-01
      0.1312001960D+03  0.9739996831D-01
      0.4285301589D+02  0.3019558425D+00
      0.1558418577D+02  0.6623360914D+00
 S   2 1.00       0.000000000000
      0.6206713851D+01  0.6559530854D+00
      0.2576489653D+01  0.3758563329D+00
 S   1 1.00       0.000000000000
      0.5769633942D+00  0.1000000000D+01
 S   1 1.00       0.000000000000
      0.2297283136D+00  0.1000000000D+01
 S   1 1.00       0.000000000000
      0.9516444003D-01  0.1000000000D+01
 P   4 1.00       0.000000000000
      0.3469723224D+02  0.1132722000D-01
      0.7958262283D+01  0.7616965920D-01
      0.2378082688D+01  0.3019225220D+00
      0.8143320818D+00  0.7278502735D+00
 P   1 1.00       0.000000000000
      0.2888754725D+00  0.1000000000D+01
 P   1 1.00       0.000000000000
      0.1005682367D+00  0.1000000000D+01
 D   1 1.00       0.000000000000
      0.1097000000D+01  0.1000000000D+01
 D   1 1.00       0.000000000000
      0.3180000000D+00  0.1000000000D+01
 F   1 1.00       0.000000000000
      0.7610000000D+00  0.1000000000D+01
 ****
      2 0
 S   6 1.00       0.000000000000
      0.1357534968D+05  0.6064550360D-03
      0.2035233368D+04  0.4697908888D-02
      0.4632256236D+03  0.2433247765D-01
      0.1312001960D+03  0.9739996831D-01
      0.4285301589D+02  0.3019558425D+00
      0.1558418577D+02  0.6623360914D+00
 S   2 1.00       0.000000000000
      0.6206713851D+01  0.6559530854D+00
      0.2576489653D+01  0.3758563329D+00
 S   1 1.00       0.000000000000
      0.5769633942D+00  0.1000000000D+01
 S   1 1.00       0.000000000000
      0.2297283136D+00  0.1000000000D+01
 S   1 1.00       0.000000000000
      0.9516444003D-01  0.1000000000D+01
 P   4 1.00       0.000000000000
      0.3469723224D+02  0.1132722000D-01
      0.7958262283D+01  0.7616965920D-01
      0.2378082688D+01  0.3019225220D+00
      0.8143320818D+00  0.7278502735D+00
 P   1 1.00       0.000000000000
      0.2888754725D+00  0.1000000000D+01
 P   1 1.00       0.000000000000
      0.1005682367D+00  0.1000000000D+01
 D   1 1.00       0.000000000000
      0.1097000000D+01  0.1000000000D+01
 D   1 1.00       0.000000000000
      0.3180000000D+00  0.1000000000D+01
 F   1 1.00       0.000000000000
      0.7610000000D+00  0.1000000000D+01
 ****
      3 0
 S   6 1.00       0.000000000000
      0.1357534968D+05  0.6064550360D-03
      0.2035233368D+04  0.4697908888D-02
      0.4632256236D+03  0.2433247765D-01
      0.1312001960D+03  0.9739996831D-01
      0.4285301589D+02  0.3019558425D+00
      0.1558418577D+02  0.6623360914D+00
 S   2 1.00       0.000000000000
      0.6206713851D+01  0.6559530854D+00
      0.2576489653D+01  0.3758563329D+00
 S   1 1.00       0.000000000000
      0.5769633942D+00  0.1000000000D+01
 S   1 1.00       0.000000000000
      0.2297283136D+00  0.1000000000D+01
 S   1 1.00       0.000000000000
      0.9516444003D-01  0.1000000000D+01
 P   4 1.00       0.000000000000
      0.3469723224D+02  0.1132722000D-01
      0.7958262283D+01  0.7616965920D-01
      0.2378082688D+01  0.3019225220D+00
      0.8143320818D+00  0.7278502735D+00
 P   1 1.00       0.000000000000
      0.2888754725D+00  0.1000000000D+01
 P   1 1.00       0.000000000000
      0.1005682367D+00  0.1000000000D+01
 D   1 1.00       0.000000000000
      0.1097000000D+01  0.1000000000D+01
 D   1 1.00       0.000000000000
      0.3180000000D+00  0.1000000000D+01
 F   1 1.00       0.000000000000
      0.7610000000D+00  0.1000000000D+01
 ****
      4 0
 S   6 1.00       0.000000000000
      0.1357534968D+05  0.6064550360D-03
      0.2035233368D+04  0.4697908888D-02
      0.4632256236D+03  0.2433247765D-01
      0.1312001960D+03  0.9739996831D-01
      0.4285301589D+02  0.3019558425D+00
      0.1558418577D+02  0.6623360914D+00
 S   2 1.00       0.000000000000
      0.6206713851D+01  0.6559530854D+00
      0.2576489653D+01  0.3758563329D+00
 S   1 1.00       0.000000000000
      0.5769633942D+00  0.1000000000D+01
 S   1 1.00       0.000000000000
      0.2297283136D+00  0.1000000000D+01
 S   1 1.00       0.000000000000
      0.9516444003D-01  0.1000000000D+01
 P   4 1.00       0.000000000000
      0.3469723224D+02  0.1132722000D-01
      0.7958262283D+01  0.7616965920D-01
      0.2378082688D+01  0.3019225220D+00
      0.8143320818D+00  0.7278502735D+00
 P   1 1.00       0.000000000000
      0.2888754725D+00  0.1000000000D+01
 P   1 1.00       0.000000000000
      0.1005682367D+00  0.1000000000D+01
 D   1 1.00       0.000000000000
      0.1097000000D+01  0.1000000000D+01
 D   1 1.00       0.000000000000
      0.3180000000D+00  0.1000000000D+01
 F   1 1.00       0.000000000000
      0.7610000000D+00  0.1000000000D+01
 ****
      5 0
 S   6 1.00       0.000000000000
      0.1357534968D+05  0.6064550360D-03
      0.2035233368D+04  0.4697908888D-02
      0.4632256236D+03  0.2433247765D-01
      0.1312001960D+03  0.9739996831D-01
      0.4285301589D+02  0.3019558425D+00
      0.1558418577D+02  0.6623360914D+00
 S   2 1.00       0.000000000000
      0.6206713851D+01  0.6559530854D+00
      0.2576489653D+01  0.3758563329D+00
 S   1 1.00       0.000000000000
      0.5769633942D+00  0.1000000000D+01
 S   1 1.00       0.000000000000
      0.2297283136D+00  0.1000000000D+01
 S   1 1.00       0.000000000000
      0.9516444003D-01  0.1000000000D+01
 P   4 1.00       0.000000000000
      0.3469723224D+02  0.1132722000D-01
      0.7958262283D+01  0.7616965920D-01
      0.2378082688D+01  0.3019225220D+00
      0.8143320818D+00  0.7278502735D+00
 P   1 1.00       0.000000000000
      0.2888754725D+00  0.1000000000D+01
 P   1 1.00       0.000000000000
      0.1005682367D+00  0.1000000000D+01
 D   1 1.00       0.000000000000
      0.1097000000D+01  0.1000000000D+01
 D   1 1.00       0.000000000000
      0.3180000000D+00  0.1000000000D+01
 F   1 1.00       0.000000000000
      0.7610000000D+00  0.1000000000D+01
 ****
      6 0
 S   6 1.00       0.000000000000
      0.1357534968D+05  0.6064550360D-03
      0.2035233368D+04  0.4697908888D-02
      0.4632256236D+03  0.2433247765D-01
      0.1312001960D+03  0.9739996831D-01
      0.4285301589D+02  0.3019558425D+00
      0.1558418577D+02  0.6623360914D+00
 S   2 1.00       0.000000000000
      0.6206713851D+01  0.6559530854D+00
      0.2576489653D+01  0.3758563329D+00
 S   1 1.00       0.000000000000
      0.5769633942D+00  0.1000000000D+01
 S   1 1.00       0.000000000000
      0.2297283136D+00  0.1000000000D+01
 S   1 1.00       0.000000000000
      0.9516444003D-01  0.1000000000D+01
 P   4 1.00       0.000000000000
      0.3469723224D+02  0.1132722000D-01
      0.7958262283D+01  0.7616965920D-01
      0.2378082688D+01  0.3019225220D+00
      0.8143320818D+00  0.7278502735D+00
 P   1 1.00       0.000000000000
      0.2888754725D+00  0.1000000000D+01
 P   1 1.00       0.000000000000
      0.1005682367D+00  0.1000000000D+01
 D   1 1.00       0.000000000000
      0.1097000000D+01  0.1000000000D+01
 D   1 1.00       0.000000000000
      0.3180000000D+00  0.1000000000D+01
 F   1 1.00       0.000000000000
      0.7610000000D+00  0.1000000000D+01
 ****
      7 0
 S   3 1.00       0.000000000000
      0.3406134100D+02  0.2543930721D-01
      0.5123574600D+01  0.1900859489D+00
      0.1164662600D+01  0.8524411301D+00
 S   1 1.00       0.000000000000
      0.3272304100D+00  0.1000000000D+01
 S   1 1.00       0.000000000000
      0.1030724100D+00  0.1000000000D+01
 P   1 1.00       0.000000000000
      0.8000000000D+00  0.1000000000D+01
 ****
      8 0
 S   3 1.00       0.000000000000
      0.3406134100D+02  0.2543930721D-01
      0.5123574600D+01  0.1900859489D+00
      0.1164662600D+01  0.8524411301D+00
 S   1 1.00       0.000000000000
      0.3272304100D+00  0.1000000000D+01
 S   1 1.00       0.000000000000
      0.1030724100D+00  0.1000000000D+01
 P   1 1.00       0.000000000000
      0.8000000000D+00  0.1000000000D+01
 ****
      9 0
 S   3 1.00       0.000000000000
      0.3406134100D+02  0.2543930721D-01
      0.5123574600D+01  0.1900859489D+00
      0.1164662600D+01  0.8524411301D+00
 S   1 1.00       0.000000000000
      0.3272304100D+00  0.1000000000D+01
 S   1 1.00       0.000000000000
      0.1030724100D+00  0.1000000000D+01
 P   1 1.00       0.000000000000
      0.8000000000D+00  0.1000000000D+01
 ****
     10 0
 S   3 1.00       0.000000000000
      0.3406134100D+02  0.2543930721D-01
      0.5123574600D+01  0.1900859489D+00
      0.1164662600D+01  0.8524411301D+00
 S   1 1.00       0.000000000000
      0.3272304100D+00  0.1000000000D+01
 S   1 1.00       0.000000000000
      0.1030724100D+00  0.1000000000D+01
 P   1 1.00       0.000000000000
      0.8000000000D+00  0.1000000000D+01
 ****
     11 0
 S   6 1.00       0.000000000000
      0.1973080065D+05  0.5862640263D-03
      0.2957895874D+04  0.4542882059D-02
      0.6732213360D+03  0.2355841345D-01
      0.1906824949D+03  0.9470919329D-01
      0.6229544190D+02  0.2971978491D+00
      0.2265416118D+02  0.6691624690D+00
 S   2 1.00       0.000000000000
      0.8979147743D+01  0.6459668363D+00
      0.3686300237D+01  0.3870057439D+00
 S   1 1.00       0.000000000000
      0.8466007680D+00  0.1000000000D+01
 S   1 1.00       0.000000000000
      0.3364713377D+00  0.1000000000D+01
 S   1 1.00       0.000000000000
      0.1364765367D+00  0.1000000000D+01
 P   4 1.00       0.000000000000
      0.4920038051D+02  0.1144882510D-01
      0.1134679054D+02  0.7842233797D-01
      0.3427397241D+01  0.3081809474D+00
      0.1178552513D+01  0.7202719637D+00
 P   1 1.00       0.000000000000
      0.4164220497D+00  0.1000000000D+01
 P   1 1.00       0.000000000000
      0.1426082601D+00  0.1000000000D+01
 D   1 1.00       0.000000000000
      0.1654000000D+01  0.1000000000D+01
 D   1 1.00       0.000000000000
      0.4690000000D+00  0.1000000000D+01
 F   1 1.00       0.000000000000
      0.1093000000D+01  0.1000000000D+01
 ****
     12 0
 S   6 1.00       0.000000000000
      0.1357534968D+05  0.6064550360D-03
      0.2035233368D+04  0.4697908888D-02
      0.4632256236D+03  0.2433247765D-01
      0.1312001960D+03  0.9739996831D-01
      0.4285301589D+02  0.3019558425D+00
      0.1558418577D+02  0.6623360914D+00
 S   2 1.00       0.000000000000
      0.6206713851D+01  0.6559530854D+00
      0.2576489653D+01  0.3758563329D+00
 S   1 1.00       0.000000000000
      0.5769633942D+00  0.1000000000D+01
 S   1 1.00       0.000000000000
      0.2297283136D+00  0.1000000000D+01
 S   1 1.00       0.000000000000
      0.9516444003D-01  0.1000000000D+01
 P   4 1.00       0.000000000000
      0.3469723224D+02  0.1132722000D-01
      0.7958262283D+01  0.7616965920D-01
      0.2378082688D+01  0.3019225220D+00
      0.8143320818D+00  0.7278502735D+00
 P   1 1.00       0.000000000000
      0.2888754725D+00  0.1000000000D+01
 P   1 1.00       0.000000000000
      0.1005682367D+00  0.1000000000D+01
 D   1 1.00       0.000000000000
      0.1097000000D+01  0.1000000000D+01
 D   1 1.00       0.000000000000
      0.3180000000D+00  0.1000000000D+01
 F   1 1.00       0.000000000000
      0.7610000000D+00  0.1000000000D+01
 ****
     13 0
 S   6 1.00       0.000000000000
      0.1357534968D+05  0.6064550360D-03
      0.2035233368D+04  0.4697908888D-02
      0.4632256236D+03  0.2433247765D-01
      0.1312001960D+03  0.9739996831D-01
      0.4285301589D+02  0.3019558425D+00
      0.1558418577D+02  0.6623360914D+00
 S   2 1.00       0.000000000000
      0.6206713851D+01  0.6559530854D+00
      0.2576489653D+01  0.3758563329D+00
 S   1 1.00       0.000000000000
      0.5769633942D+00  0.1000000000D+01
 S   1 1.00       0.000000000000
      0.2297283136D+00  0.1000000000D+01
 S   1 1.00       0.000000000000
      0.9516444003D-01  0.1000000000D+01
 P   4 1.00       0.000000000000
      0.3469723224D+02  0.1132722000D-01
      0.7958262283D+01  0.7616965920D-01
      0.2378082688D+01  0.3019225220D+00
      0.8143320818D+00  0.7278502735D+00
 P   1 1.00       0.000000000000
      0.2888754725D+00  0.1000000000D+01
 P   1 1.00       0.000000000000
      0.1005682367D+00  0.1000000000D+01
 D   1 1.00       0.000000000000
      0.1097000000D+01  0.1000000000D+01
 D   1 1.00       0.000000000000
      0.3180000000D+00  0.1000000000D+01
 F   1 1.00       0.000000000000
      0.7610000000D+00  0.1000000000D+01
 ****
     14 0
 S   6 1.00       0.000000000000
      0.1357534968D+05  0.6064550360D-03
      0.2035233368D+04  0.4697908888D-02
      0.4632256236D+03  0.2433247765D-01
      0.1312001960D+03  0.9739996831D-01
      0.4285301589D+02  0.3019558425D+00
      0.1558418577D+02  0.6623360914D+00
 S   2 1.00       0.000000000000
      0.6206713851D+01  0.6559530854D+00
      0.2576489653D+01  0.3758563329D+00
 S   1 1.00       0.000000000000
      0.5769633942D+00  0.1000000000D+01
 S   1 1.00       0.000000000000
      0.2297283136D+00  0.1000000000D+01
 S   1 1.00       0.000000000000
      0.9516444003D-01  0.1000000000D+01
 P   4 1.00       0.000000000000
      0.3469723224D+02  0.1132722000D-01
      0.7958262283D+01  0.7616965920D-01
      0.2378082688D+01  0.3019225220D+00
      0.8143320818D+00  0.7278502735D+00
 P   1 1.00       0.000000000000
      0.2888754725D+00  0.1000000000D+01
 P   1 1.00       0.000000000000
      0.1005682367D+00  0.1000000000D+01
 D   1 1.00       0.000000000000
      0.1097000000D+01  0.1000000000D+01
 D   1 1.00       0.000000000000
      0.3180000000D+00  0.1000000000D+01
 F   1 1.00       0.000000000000
      0.7610000000D+00  0.1000000000D+01
 ****
     15 0
 S   3 1.00       0.000000000000
      0.3406134100D+02  0.2543930721D-01
      0.5123574600D+01  0.1900859489D+00
      0.1164662600D+01  0.8524411301D+00
 S   1 1.00       0.000000000000
      0.3272304100D+00  0.1000000000D+01
 S   1 1.00       0.000000000000
      0.1030724100D+00  0.1000000000D+01
 P   1 1.00       0.000000000000
      0.8000000000D+00  0.1000000000D+01
 ****
     16 0
 S   3 1.00       0.000000000000
      0.3406134100D+02  0.2543930721D-01
      0.5123574600D+01  0.1900859489D+00
      0.1164662600D+01  0.8524411301D+00
 S   1 1.00       0.000000000000
      0.3272304100D+00  0.1000000000D+01
 S   1 1.00       0.000000000000
      0.1030724100D+00  0.1000000000D+01
 P   1 1.00       0.000000000000
      0.8000000000D+00  0.1000000000D+01
 ****
     17 0
 S   6 1.00       0.000000000000
      0.1357534968D+05  0.6064550360D-03
      0.2035233368D+04  0.4697908888D-02
      0.4632256236D+03  0.2433247765D-01
      0.1312001960D+03  0.9739996831D-01
      0.4285301589D+02  0.3019558425D+00
      0.1558418577D+02  0.6623360914D+00
 S   2 1.00       0.000000000000
      0.6206713851D+01  0.6559530854D+00
      0.2576489653D+01  0.3758563329D+00
 S   1 1.00       0.000000000000
      0.5769633942D+00  0.1000000000D+01
 S   1 1.00       0.000000000000
      0.2297283136D+00  0.1000000000D+01
 S   1 1.00       0.000000000000
      0.9516444003D-01  0.1000000000D+01
 P   4 1.00       0.000000000000
      0.3469723224D+02  0.1132722000D-01
      0.7958262283D+01  0.7616965920D-01
      0.2378082688D+01  0.3019225220D+00
      0.8143320818D+00  0.7278502735D+00
 P   1 1.00       0.000000000000
      0.2888754725D+00  0.1000000000D+01
 P   1 1.00       0.000000000000
      0.1005682367D+00  0.1000000000D+01
 D   1 1.00       0.000000000000
      0.1097000000D+01  0.1000000000D+01
 D   1 1.00       0.000000000000
      0.3180000000D+00  0.1000000000D+01
 F   1 1.00       0.000000000000
      0.7610000000D+00  0.1000000000D+01
 ****
     18 0
 S   3 1.00       0.000000000000
      0.3406134100D+02  0.2543930721D-01
      0.5123574600D+01  0.1900859489D+00
      0.1164662600D+01  0.8524411301D+00
 S   1 1.00       0.000000000000
      0.3272304100D+00  0.1000000000D+01
 S   1 1.00       0.000000000000
      0.1030724100D+00  0.1000000000D+01
 P   1 1.00       0.000000000000
      0.8000000000D+00  0.1000000000D+01
 ****
     19 0
 S   3 1.00       0.000000000000
      0.3406134100D+02  0.2543930721D-01
      0.5123574600D+01  0.1900859489D+00
      0.1164662600D+01  0.8524411301D+00
 S   1 1.00       0.000000000000
      0.3272304100D+00  0.1000000000D+01
 S   1 1.00       0.000000000000
      0.1030724100D+00  0.1000000000D+01
 P   1 1.00       0.000000000000
      0.8000000000D+00  0.1000000000D+01
 ****
     20 0
 S   3 1.00       0.000000000000
      0.3406134100D+02  0.2543930721D-01
      0.5123574600D+01  0.1900859489D+00
      0.1164662600D+01  0.8524411301D+00
 S   1 1.00       0.000000000000
      0.3272304100D+00  0.1000000000D+01
 S   1 1.00       0.000000000000
      0.1030724100D+00  0.1000000000D+01
 P   1 1.00       0.000000000000
      0.8000000000D+00  0.1000000000D+01
 ****
     21 0
 S   6 1.00       0.000000000000
      0.1357534968D+05  0.6064550360D-03
      0.2035233368D+04  0.4697908888D-02
      0.4632256236D+03  0.2433247765D-01
      0.1312001960D+03  0.9739996831D-01
      0.4285301589D+02  0.3019558425D+00
      0.1558418577D+02  0.6623360914D+00
 S   2 1.00       0.000000000000
      0.6206713851D+01  0.6559530854D+00
      0.2576489653D+01  0.3758563329D+00
 S   1 1.00       0.000000000000
      0.5769633942D+00  0.1000000000D+01
 S   1 1.00       0.000000000000
      0.2297283136D+00  0.1000000000D+01
 S   1 1.00       0.000000000000
      0.9516444003D-01  0.1000000000D+01
 P   4 1.00       0.000000000000
      0.3469723224D+02  0.1132722000D-01
      0.7958262283D+01  0.7616965920D-01
      0.2378082688D+01  0.3019225220D+00
      0.8143320818D+00  0.7278502735D+00
 P   1 1.00       0.000000000000
      0.2888754725D+00  0.1000000000D+01
 P   1 1.00       0.000000000000
      0.1005682367D+00  0.1000000000D+01
 D   1 1.00       0.000000000000
      0.1097000000D+01  0.1000000000D+01
 D   1 1.00       0.000000000000
      0.3180000000D+00  0.1000000000D+01
 F   1 1.00       0.000000000000
      0.7610000000D+00  0.1000000000D+01
 ****
     22 0
 S   3 1.00       0.000000000000
      0.3406134100D+02  0.2543930721D-01
      0.5123574600D+01  0.1900859489D+00
      0.1164662600D+01  0.8524411301D+00
 S   1 1.00       0.000000000000
      0.3272304100D+00  0.1000000000D+01
 S   1 1.00       0.000000000000
      0.1030724100D+00  0.1000000000D+01
 P   1 1.00       0.000000000000
      0.8000000000D+00  0.1000000000D+01
 ****
     23 0
 S   3 1.00       0.000000000000
      0.3406134100D+02  0.2543930721D-01
      0.5123574600D+01  0.1900859489D+00
      0.1164662600D+01  0.8524411301D+00
 S   1 1.00       0.000000000000
      0.3272304100D+00  0.1000000000D+01
 S   1 1.00       0.000000000000
      0.1030724100D+00  0.1000000000D+01
 P   1 1.00       0.000000000000
      0.8000000000D+00  0.1000000000D+01
 ****
     24 0
 S   3 1.00       0.000000000000
      0.3406134100D+02  0.2543930721D-01
      0.5123574600D+01  0.1900859489D+00
      0.1164662600D+01  0.8524411301D+00
 S   1 1.00       0.000000000000
      0.3272304100D+00  0.1000000000D+01
 S   1 1.00       0.000000000000
      0.1030724100D+00  0.1000000000D+01
 P   1 1.00       0.000000000000
      0.8000000000D+00  0.1000000000D+01
 ****
     25 0
 S   6 1.00       0.000000000000
      0.2703238263D+05  0.5722733521D-03
      0.4052387139D+04  0.4435323349D-02
      0.9223272271D+03  0.2302010771D-01
      0.2612407099D+03  0.9282249067D-01
      0.8535464135D+02  0.2937850001D+00
      0.3103503524D+02  0.6740160450D+00
 S   2 1.00       0.000000000000
      0.1226086073D+02  0.6383993703D+00
      0.4998707601D+01  0.3953458713D+00
 S   1 1.00       0.000000000000
      0.1170310816D+01  0.1000000000D+01
 S   1 1.00       0.000000000000
      0.4647474099D+00  0.1000000000D+01
 S   1 1.00       0.000000000000
      0.1850453636D+00  0.1000000000D+01
 P   4 1.00       0.000000000000
      0.6327495480D+02  0.1201833222D-01
      0.1462704938D+02  0.8300542179D-01
      0.4450122346D+01  0.3199174393D+00
      0.1527579965D+01  0.7071554292D+00
 P   1 1.00       0.000000000000
      0.5293511794D+00  0.1000000000D+01
 P   1 1.00       0.000000000000
      0.1747842127D+00  0.1000000000D+01
 D   1 1.00       0.000000000000
      0.2314000000D+01  0.1000000000D+01
 D   1 1.00       0.000000000000
      0.6450000000D+00  0.1000000000D+01
 F   1 1.00       0.000000000000
      0.1428000000D+01  0.1000000000D+01
 ****
     26 0
 S   6 1.00       0.000000000000
      0.1357534968D+05  0.6064550360D-03
      0.2035233368D+04  0.4697908888D-02
      0.4632256236D+03  0.2433247765D-01
      0.1312001960D+03  0.9739996831D-01
      0.4285301589D+02  0.3019558425D+00
      0.1558418577D+02  0.6623360914D+00
 S   2 1.00       0.000000000000
      0.6206713851D+01  0.6559530854D+00
      0.2576489653D+01  0.3758563329D+00
 S   1 1.00       0.000000000000
      0.5769633942D+00  0.1000000000D+01
 S   1 1.00       0.000000000000
      0.2297283136D+00  0.1000000000D+01
 S   1 1.00       0.000000000000
      0.9516444003D-01  0.1000000000D+01
 P   4 1.00       0.000000000000
      0.3469723224D+02  0.1132722000D-01
      0.7958262283D+01  0.7616965920D-01
      0.2378082688D+01  0.3019225220D+00
      0.8143320818D+00  0.7278502735D+00
 P   1 1.00       0.000000000000
      0.2888754725D+00  0.1000000000D+01
 P   1 1.00       0.000000000000
      0.1005682367D+00  0.1000000000D+01
 D   1 1.00       0.000000000000
      0.1097000000D+01  0.1000000000D+01
 D   1 1.00       0.000000000000
      0.3180000000D+00  0.1000000000D+01
 F   1 1.00       0.000000000000
      0.7610000000D+00  0.1000000000D+01
 ****
     27 0
 S   6 1.00       0.000000000000
      0.1357534968D+05  0.6064550360D-03
      0.2035233368D+04  0.4697908888D-02
      0.4632256236D+03  0.2433247765D-01
      0.1312001960D+03  0.9739996831D-01
      0.4285301589D+02  0.3019558425D+00
      0.1558418577D+02  0.6623360914D+00
 S   2 1.00       0.000000000000
      0.6206713851D+01  0.6559530854D+00
      0.2576489653D+01  0.3758563329D+00
 S   1 1.00       0.000000000000
      0.5769633942D+00  0.1000000000D+01
 S   1 1.00       0.000000000000
      0.2297283136D+00  0.1000000000D+01
 S   1 1.00       0.000000000000
      0.9516444003D-01  0.1000000000D+01
 P   4 1.00       0.000000000000
      0.3469723224D+02  0.1132722000D-01
      0.7958262283D+01  0.7616965920D-01
      0.2378082688D+01  0.3019225220D+00
      0.8143320818D+00  0.7278502735D+00
 P   1 1.00       0.000000000000
      0.2888754725D+00  0.1000000000D+01
 P   1 1.00       0.000000000000
      0.1005682367D+00  0.1000000000D+01
 D   1 1.00       0.000000000000
      0.1097000000D+01  0.1000000000D+01
 D   1 1.00       0.000000000000
      0.3180000000D+00  0.1000000000D+01
 F   1 1.00       0.000000000000
      0.7610000000D+00  0.1000000000D+01
 ****
     28 0
 S   6 1.00       0.000000000000
      0.1357534968D+05  0.6064550360D-03
      0.2035233368D+04  0.4697908888D-02
      0.4632256236D+03  0.2433247765D-01
      0.1312001960D+03  0.9739996831D-01
      0.4285301589D+02  0.3019558425D+00
      0.1558418577D+02  0.6623360914D+00
 S   2 1.00       0.000000000000
      0.6206713851D+01  0.6559530854D+00
      0.2576489653D+01  0.3758563329D+00
 S   1 1.00       0.000000000000
      0.5769633942D+00  0.1000000000D+01
 S   1 1.00       0.000000000000
      0.2297283136D+00  0.1000000000D+01
 S   1 1.00       0.000000000000
      0.9516444003D-01  0.1000000000D+01
 P   4 1.00       0.000000000000
      0.3469723224D+02  0.1132722000D-01
      0.7958262283D+01  0.7616965920D-01
      0.2378082688D+01  0.3019225220D+00
      0.8143320818D+00  0.7278502735D+00
 P   1 1.00       0.000000000000
      0.2888754725D+00  0.1000000000D+01
 P   1 1.00       0.000000000000
      0.1005682367D+00  0.1000000000D+01
 D   1 1.00       0.000000000000
      0.1097000000D+01  0.1000000000D+01
 D   1 1.00       0.000000000000
      0.3180000000D+00  0.1000000000D+01
 F   1 1.00       0.000000000000
      0.7610000000D+00  0.1000000000D+01
 ****
     29 0
 S   6 1.00       0.000000000000
      0.1357534968D+05  0.6064550360D-03
      0.2035233368D+04  0.4697908888D-02
      0.4632256236D+03  0.2433247765D-01
      0.1312001960D+03  0.9739996831D-01
      0.4285301589D+02  0.3019558425D+00
      0.1558418577D+02  0.6623360914D+00
 S   2 1.00       0.000000000000
      0.6206713851D+01  0.6559530854D+00
      0.2576489653D+01  0.3758563329D+00
 S   1 1.00       0.000000000000
      0.5769633942D+00  0.1000000000D+01
 S   1 1.00       0.000000000000
      0.2297283136D+00  0.1000000000D+01
 S   1 1.00       0.000000000000
      0.9516444003D-01  0.1000000000D+01
 P   4 1.00       0.000000000000
      0.3469723224D+02  0.1132722000D-01
      0.7958262283D+01  0.7616965920D-01
      0.2378082688D+01  0.3019225220D+00
      0.8143320818D+00  0.7278502735D+00
 P   1 1.00       0.000000000000
      0.2888754725D+00  0.1000000000D+01
 P   1 1.00       0.000000000000
      0.1005682367D+00  0.1000000000D+01
 D   1 1.00       0.000000000000
      0.1097000000D+01  0.1000000000D+01
 D   1 1.00       0.000000000000
      0.3180000000D+00  0.1000000000D+01
 F   1 1.00       0.000000000000
      0.7610000000D+00  0.1000000000D+01
 ****
     30 0
 S   3 1.00       0.000000000000
      0.3406134100D+02  0.2543930721D-01
      0.5123574600D+01  0.1900859489D+00
      0.1164662600D+01  0.8524411301D+00
 S   1 1.00       0.000000000000
      0.3272304100D+00  0.1000000000D+01
 S   1 1.00       0.000000000000
      0.1030724100D+00  0.1000000000D+01
 P   1 1.00       0.000000000000
      0.8000000000D+00  0.1000000000D+01
 ****
     31 0
 S   3 1.00       0.000000000000
      0.3406134100D+02  0.2543930721D-01
      0.5123574600D+01  0.1900859489D+00
      0.1164662600D+01  0.8524411301D+00
 S   1 1.00       0.000000000000
      0.3272304100D+00  0.1000000000D+01
 S   1 1.00       0.000000000000
      0.1030724100D+00  0.1000000000D+01
 P   1 1.00       0.000000000000
      0.8000000000D+00  0.1000000000D+01
 ****
     32 0
 S   6 1.00       0.000000000000
      0.1357534968D+05  0.6064550360D-03
      0.2035233368D+04  0.4697908888D-02
      0.4632256236D+03  0.2433247765D-01
      0.1312001960D+03  0.9739996831D-01
      0.4285301589D+02  0.3019558425D+00
      0.1558418577D+02  0.6623360914D+00
 S   2 1.00       0.000000000000
      0.6206713851D+01  0.6559530854D+00
      0.2576489653D+01  0.3758563329D+00
 S   1 1.00       0.000000000000
[...]
     8  H    0.000002  -0.000002   0.000003   0.000004  -0.000001  -0.000009
     9  H   -0.000001   0.000000  -0.000001  -0.000000   0.000000   0.000000
    10  H    0.001090  -0.000121   0.003106  -0.000129  -0.000153   0.001801
    11  N   -0.000323   0.000699   0.006988   0.000156  -0.000111  -0.000122
    12  C    0.010952  -0.030461  -0.028602  -0.014757  -0.007416   0.011790
    13  C   -0.019966  -0.023239   0.281533  -0.039184  -0.051269  -0.025531
    14  C    0.000067  -0.000093  -0.000619  -0.000028  -0.000005   0.000017
    15  H    0.000003   0.000029  -0.000162  -0.000002  -0.000004   0.000003
    16  H   -0.000000  -0.000008   0.000077   0.000003   0.000005  -0.000004
    17  C    0.399049   0.402611  -0.063225   0.009335  -0.004931  -0.006740
    18  H   -0.015454  -0.026567   0.010387  -0.000373   0.000091  -0.000079
    19  H    0.515314  -0.018848  -0.007652  -0.000127  -0.000266   0.002446
    20  H   -0.018848   0.541066  -0.005882  -0.000110   0.002223   0.000122
    21  C   -0.007652  -0.005882   5.044287   0.415928   0.413836   0.399316
    22  H   -0.000127  -0.000110   0.415928   0.515828  -0.019099  -0.021452
    23  H   -0.000266   0.002223   0.413836  -0.019099   0.535410  -0.022739
    24  H    0.002446   0.000122   0.399316  -0.021452  -0.022739   0.535354
    25  O   -0.000213   0.000075   0.002710   0.005629   0.000385   0.001281
    26  C   -0.000041  -0.000073   0.001078  -0.001445  -0.000553   0.000257
    27  C    0.000401   0.007430  -0.000535   0.000870   0.004052  -0.000609
    28  C   -0.000098   0.000578  -0.001888   0.000303   0.000649   0.000038
    29  C    0.000030   0.000180  -0.000068   0.000147  -0.000175  -0.000055
    30  H    0.000333  -0.000565   0.001249  -0.000129   0.000222  -0.000060
    31  H   -0.000003   0.000018  -0.000034   0.000007   0.000020   0.000001
    32  C    0.000000   0.000001   0.000004  -0.000030  -0.000049  -0.000002
    33  C   -0.000003  -0.000013  -0.000752   0.000747   0.000148  -0.000014
    34  C    0.000000   0.000000  -0.000035   0.000025  -0.000001  -0.000001
    35  C   -0.000000   0.000000   0.000014   0.000009   0.000003   0.000000
    36  H   -0.000000   0.000000  -0.000001   0.000000  -0.000000   0.000000
    37  H   -0.000000  -0.000000  -0.000232   0.000293   0.000009   0.000001
    38  H   -0.000000   0.000000   0.000001  -0.000001   0.000000   0.000000
    39  N   -0.000000   0.000000   0.000000  -0.000000  -0.000000   0.000000
    40  O   -0.000000   0.000000   0.000000   0.000000  -0.000000  -0.000000
    41  O    0.000000  -0.000000   0.000000   0.000000  -0.000000  -0.000000
    42  H   -0.000010   0.000010   0.000021   0.000000  -0.000001   0.000001
              25         26         27         28         29         30
     1  C   -0.000341   0.000151  -0.000135   0.000032  -0.000002   0.000000
     2  C   -0.000798  -0.000148  -0.001605  -0.000054  -0.000249   0.000010
     3  C    0.025658  -0.010752   0.027682  -0.003874   0.002025  -0.000644
     4  C   -0.004770   0.005576  -0.034894   0.002707  -0.001234  -0.000149
     5  C   -0.004125   0.000624  -0.002876   0.000316  -0.000115  -0.000057
     6  C    0.000301   0.000047   0.000113  -0.000013   0.000004   0.000001
     7  H    0.000063  -0.000080   0.000114  -0.000039   0.000008   0.000000
     8  H   -0.000001  -0.000000  -0.000001   0.000000   0.000000  -0.000000
     9  H   -0.000002   0.000001  -0.000002   0.000000  -0.000000   0.000000
    10  H   -0.000080  -0.000006  -0.000055  -0.000003   0.000002  -0.000004
    11  N   -0.077764   0.046566  -0.071141   0.008582  -0.008222   0.003031
    12  C    0.229733   0.001694   0.128274   0.015048  -0.060180  -0.053606
    13  C   -0.036150  -0.016922   0.044659  -0.004545   0.006378  -0.007429
    14  C    0.004915  -0.005467  -0.012332  -0.011833   0.012145   0.000340
    15  H   -0.000138  -0.009370   0.002926  -0.008539   0.004436   0.000573
    16  H    0.002794  -0.004125   0.004190  -0.002749  -0.001070  -0.000055
    17  C    0.004538   0.000460  -0.010293   0.001705  -0.000574   0.001678
    18  H    0.000024   0.000135  -0.006181   0.000759  -0.000168  -0.000109
    19  H   -0.000213  -0.000041   0.000401  -0.000098   0.000030   0.000333
    20  H    0.000075  -0.000073   0.007430   0.000578   0.000180  -0.000565
    21  C    0.002710   0.001078  -0.000535  -0.001888  -0.000068   0.001249
    22  H    0.005629  -0.001445   0.000870   0.000303   0.000147  -0.000129
    23  H    0.000385  -0.000553   0.004052   0.000649  -0.000175   0.000222
    24  H    0.001281   0.000257  -0.000609   0.000038  -0.000055  -0.000060
    25  O    7.858023   0.337248  -0.029438   0.000087  -0.059134   0.003874
    26  C    0.337248   5.100506  -0.088881  -0.050474   0.222681  -0.000008
    27  C   -0.029438  -0.088881   5.437695   0.453892   0.053811   0.442202
    28  C    0.000087  -0.050474   0.453892   5.226845   0.273043  -0.041108
    29  C   -0.059134   0.222681   0.053811   0.273043   5.139508   0.010328
    30  H    0.003874  -0.000008   0.442202  -0.041108   0.010328   0.495853
    31  H   -0.000506   0.002970  -0.051442   0.457303  -0.066025  -0.008416
    32  C    0.007028   0.063273   0.012393  -0.134633   0.297831  -0.000427
    33  C   -0.033180   0.323096   0.003295   0.023901   0.035621  -0.000108
    34  C    0.005233   0.077241   0.000883  -0.005664  -0.122574  -0.000001
    35  C   -0.000208  -0.155713  -0.001461   0.026093   0.063176   0.000007
    36  H   -0.000117   0.011836   0.001057  -0.007249  -0.052449  -0.000038
    37  H    0.005449  -0.074144   0.000199  -0.000296   0.016727  -0.000010
    38  H   -0.000111   0.011177  -0.000016   0.000094  -0.002814   0.000000
    39  N    0.000002   0.000742  -0.000010  -0.000433   0.003965  -0.000000
    40  O    0.000000   0.002490  -0.000018  -0.000897  -0.003296   0.000000
    41  O    0.000000   0.001213  -0.000001  -0.000020  -0.002530   0.000000
    42  H   -0.000833   0.001146  -0.003868   0.001702  -0.000245   0.000003
              31         32         33         34         35         36
     1  C    0.000000  -0.000001  -0.000055  -0.000004   0.000000  -0.000000
     2  C   -0.000002  -0.000003   0.001001  -0.000001  -0.000001  -0.000000
     3  C   -0.000016   0.000018   0.002203   0.000119   0.000040   0.000003
     4  C    0.000093  -0.000020  -0.001406  -0.000045   0.000006  -0.000002
     5  C    0.000000   0.000000  -0.000076  -0.000009   0.000000  -0.000000
     6  C    0.000000  -0.000000  -0.000019   0.000000   0.000000   0.000000
     7  H   -0.000000   0.000001   0.000007   0.000001   0.000000   0.000000
     8  H   -0.000000   0.000000  -0.000000   0.000000  -0.000000   0.000000
     9  H   -0.000000   0.000000   0.000000  -0.000000  -0.000000  -0.000000
    10  H   -0.000000   0.000000  -0.000003  -0.000000  -0.000000   0.000000
    11  N   -0.000416  -0.001633  -0.000915  -0.000920   0.000305  -0.000019
    12  C    0.012692  -0.003548  -0.015580   0.000717  -0.000556   0.000102
    13  C   -0.000234   0.000150   0.000435   0.000248  -0.000046   0.000006
    14  C   -0.000275   0.001867   0.000246  -0.000682   0.000215  -0.000085
    15  H    0.000266  -0.001028  -0.001113   0.000101   0.000300  -0.000008
    16  H   -0.000096   0.001152   0.003823   0.000324   0.000069  -0.000006
    17  C    0.000039  -0.000028   0.000188  -0.000002   0.000001   0.000000
    18  H   -0.000012   0.000001   0.000007   0.000000  -0.000000  -0.000000
    19  H   -0.000003   0.000000  -0.000003   0.000000  -0.000000  -0.000000
    20  H    0.000018   0.000001  -0.000013   0.000000   0.000000   0.000000
    21  C   -0.000034   0.000004  -0.000752  -0.000035   0.000014  -0.000001
    22  H    0.000007  -0.000030   0.000747   0.000025   0.000009   0.000000
    23  H    0.000020  -0.000049   0.000148  -0.000001   0.000003  -0.000000
    24  H    0.000001  -0.000002  -0.000014  -0.000001   0.000000   0.000000
    25  O   -0.000506   0.007028  -0.033180   0.005233  -0.000208  -0.000117
    26  C    0.002970   0.063273   0.323096   0.077241  -0.155713   0.011836
    27  C   -0.051442   0.012393   0.003295   0.000883  -0.001461   0.001057
    28  C    0.457303  -0.134633   0.023901  -0.005664   0.026093  -0.007249
    29  C   -0.066025   0.297831   0.035621  -0.122574   0.063176  -0.052449
    30  H   -0.008416  -0.000427  -0.000108  -0.000001   0.000007  -0.000038
    31  H    0.508923  -0.004457   0.000019  -0.000166   0.002640   0.001965
    32  C   -0.004457   5.526154  -0.145709  -0.026685   0.273358   0.430977
    33  C    0.000019  -0.145709   5.238277   0.335695   0.072274  -0.003191
    34  C   -0.000166  -0.026685   0.335695   5.190262   0.294784   0.006916
    35  C    0.002640   0.273358   0.072274   0.294784   5.265740  -0.048095
    36  H    0.001965   0.430977  -0.003191   0.006916  -0.048095   0.469803
    37  H    0.000021  -0.004199   0.452468  -0.054891   0.015265   0.000044
    38  H   -0.000003   0.007705  -0.044600   0.425117  -0.045749  -0.000320
    39  N   -0.000015  -0.061535   0.002656  -0.050023   0.436005  -0.006066
    40  O   -0.000025   0.032199  -0.002309   0.025258  -0.145679   0.027027
    41  O   -0.000001   0.025127  -0.001272   0.033146  -0.143955   0.001186
    42  H    0.000041  -0.000220   0.000059  -0.000047   0.000010  -0.000000
              37         38         39         40         41         42
     1  C   -0.000013   0.000000   0.000000  -0.000000   0.000000   0.002439
     2  C    0.000046   0.000000  -0.000000   0.000000  -0.000000  -0.001392
     3  C    0.000528  -0.000004  -0.000000  -0.000000   0.000000  -0.014367
     4  C    0.000034   0.000001   0.000000  -0.000000   0.000000   0.004066
     5  C   -0.000014   0.000000  -0.000000  -0.000000   0.000000   0.000562
     6  C    0.000007  -0.000000   0.000000   0.000000  -0.000000  -0.000438
     7  H    0.000002  -0.000000   0.000000  -0.000000  -0.000000  -0.002244
     8  H   -0.000000  -0.000000   0.000000  -0.000000  -0.000000  -0.000001
     9  H   -0.000000   0.000000  -0.000000  -0.000000   0.000000   0.000016
    10  H   -0.000000  -0.000000   0.000000  -0.000000  -0.000000   0.000002
    11  N   -0.000214   0.000000   0.000000  -0.000000   0.000000  -0.024240
    12  C   -0.000936   0.000013   0.000007   0.000001  -0.000001   0.007565
    13  C    0.000205  -0.000002  -0.000000   0.000000  -0.000000  -0.002133
    14  C   -0.000050  -0.000001  -0.000005   0.000002  -0.000001   0.390091
    15  H    0.000004  -0.000002   0.000002   0.000000   0.000000  -0.008497
    16  H    0.000132   0.000008  -0.000012  -0.000002  -0.000000  -0.043000
    17  C    0.000013   0.000000  -0.000000  -0.000000  -0.000000   0.000080
    18  H   -0.000000   0.000000  -0.000000   0.000000   0.000000  -0.000184
    19  H   -0.000000  -0.000000  -0.000000  -0.000000   0.000000  -0.000010
    20  H   -0.000000   0.000000   0.000000   0.000000  -0.000000   0.000010
    21  C   -0.000232   0.000001   0.000000   0.000000   0.000000   0.000021
    22  H    0.000293  -0.000001  -0.000000   0.000000   0.000000   0.000000
    23  H    0.000009   0.000000  -0.000000  -0.000000  -0.000000  -0.000001
    24  H    0.000001   0.000000   0.000000  -0.000000  -0.000000   0.000001
    25  O    0.005449  -0.000111   0.000002   0.000000   0.000000  -0.000833
    26  C   -0.074144   0.011177   0.000742   0.002490   0.001213   0.001146
    27  C    0.000199  -0.000016  -0.000010  -0.000018  -0.000001  -0.003868
    28  C   -0.000296   0.000094  -0.000433  -0.000897  -0.000020   0.001702
    29  C    0.016727  -0.002814   0.003965  -0.003296  -0.002530  -0.000245
    30  H   -0.000010   0.000000  -0.000000   0.000000   0.000000   0.000003
    31  H    0.000021  -0.000003  -0.000015  -0.000025  -0.000001   0.000041
    32  C   -0.004199   0.007705  -0.061535   0.032199   0.025127  -0.000220
    33  C    0.452468  -0.044600   0.002656  -0.002309  -0.001272   0.000059
    34  C   -0.054891   0.425117  -0.050023   0.025258   0.033146  -0.000047
    35  C    0.015265  -0.045749   0.436005  -0.145679  -0.143955   0.000010
    36  H    0.000044  -0.000320  -0.006066   0.027027   0.001186  -0.000000
    37  H    0.504921  -0.008122  -0.000125   0.000001  -0.000108  -0.000000
    38  H   -0.008122   0.471853  -0.006405   0.001021   0.023433  -0.000000
    39  N   -0.000125  -0.006405   5.466251   0.382636   0.382500   0.000000
    40  O    0.000001   0.001021   0.382636   8.149108  -0.110372   0.000000
    41  O   -0.000108   0.023433   0.382500  -0.110372   8.148498   0.000000
    42  H   -0.000000  -0.000000   0.000000   0.000000   0.000000   0.542629
 Mulliken charges:
               1
     1  C   -0.116307
     2  C   -0.327861
     3  C    0.108346
     4  C   -0.087922
     5  C   -0.236173
     6  C   -0.176874
     7  H    0.132468
     8  H    0.121066
     9  H    0.126618
    10  H    0.121759
    11  N   -0.006171
    12  C    0.397501
    13  C    0.270483
    14  C   -0.351453
    15  H    0.161871
    16  H    0.138187
    17  C   -0.452592
    18  H    0.152369
    19  H    0.145216
    20  H    0.137220
    21  C   -0.425586
    22  H    0.145204
    23  H    0.134674
    24  H    0.136712
    25  O   -0.247141
    26  C    0.205997
    27  C   -0.310347
    28  C   -0.219268
    29  C    0.239131
    30  H    0.153218
    31  H    0.145128
    32  C   -0.295032
    33  C   -0.245849
    34  C   -0.134322
    35  C    0.091148
    36  H    0.166723
    37  H    0.146987
    38  H    0.167727
    39  N    0.449864
    40  O   -0.357147
    41  O   -0.356843
    42  H    0.151273
 Sum of Mulliken charges =  -0.00000
 Mulliken charges with hydrogens summed into heavy atoms:
               1
     1  C    0.010311
     2  C   -0.195393
     3  C    0.108346
     4  C   -0.087922
     5  C   -0.114414
     6  C   -0.055808
    11  N   -0.006171
    12  C    0.397501
    13  C    0.270483
    14  C    0.099878
    17  C   -0.017788
    21  C   -0.008996
    25  O   -0.247141
    26  C    0.205997
    27  C   -0.157129
    28  C   -0.074141
    29  C    0.239131
    32  C   -0.128308
    33  C   -0.098862
    34  C    0.033404
    35  C    0.091148
    39  N    0.449864
    40  O   -0.357147
    41  O   -0.356843
 Electronic spatial extent (au):  <R**2>=           8499.2159
 Charge=              0.0000 electrons
 Dipole moment (field-independent basis, Debye):
    X=              4.9382    Y=              2.9920    Z=             -0.9180  Tot=              5.8464
 Quadrupole moment (field-independent basis, Debye-Ang):
   XX=           -190.9875   YY=           -131.6184   ZZ=           -134.2348
   XY=             -2.4226   XZ=              0.0939   YZ=             -1.2595
 Traceless Quadrupole moment (field-independent basis, Debye-Ang):
   XX=            -38.7073   YY=             20.6619   ZZ=             18.0454
   XY=             -2.4226   XZ=              0.0939   YZ=             -1.2595
 Octapole moment (field-independent basis, Debye-Ang**2):
  XXX=            283.7885  YYY=              9.1249  ZZZ=             -3.8312  XYY=              0.8525
  XXY=             56.4010  XXZ=             32.6536  XZZ=            -13.5148  YZZ=             -3.9455
  YYZ=            -15.4234  XYZ=              9.6979
 Hexadecapole moment (field-independent basis, Debye-Ang**3):
 XXXX=         -10881.5967 YYYY=          -1708.5594 ZZZZ=           -983.4076 XXXY=           -229.7339
 XXXZ=             64.5883 YYYX=            -11.3756 YYYZ=            -11.9738 ZZZX=             -2.4542
 ZZZY=             -8.7295 XXYY=          -1722.1161 XXZZ=          -1608.0336 YYZZ=           -432.5306
 XXYZ=             37.3056 YYXZ=             -8.4095 ZZXY=             24.7336
 N-N= 2.064945644912D+03 E-N=-6.620142120217D+03  KE= 1.064025437276D+03
 No NMR shielding tensors so no spin-rotation constants.
 Leave Link  601 at Thu May  9 03:05:35 2024, MaxMem=  2684354560 cpu:              17.0 elap:               0.9
 (Enter /s/ls4/groups/g0130/bin/g16/l9999.exe)
 Electronic transition elements 
                 1             2             3             4             5 
      1  -0.106908D+04 -0.106904D+04 -0.106903D+04 -0.106903D+04 -0.106902D+04
      2   0.544979D+00  0.956450D+00 -0.122246D+01 -0.305741D+00  0.291672D+00
      3  -0.157002D+00 -0.110606D+00  0.661831D+00  0.163081D+00 -0.120819D+00
      4  -0.159331D-01  0.322716D+00 -0.327382D+00 -0.106010D+00 -0.572250D-01
      5  -0.375848D-01 -0.104676D+00  0.151205D+00  0.381106D-01 -0.395085D-01
      6   0.108142D-01  0.120176D-01 -0.820288D-01 -0.202125D-01  0.164070D-01
      7   0.110797D-02 -0.360745D-01  0.404620D-01  0.132186D-01  0.777901D-02
      8   0.632568D-01  0.319056D-02  0.101564D+00 -0.476414D+00  0.532207D-01
      9  -0.585465D-01 -0.296802D+00 -0.250255D+00  0.317228D+00  0.454221D-01
     10   0.610032D-01  0.728089D-01 -0.254503D+00 -0.994684D-01  0.974510D-01
     11  -0.766590D-01  0.287753D+00  0.121797D+01  0.312533D+00 -0.158217D+00
     12  -0.838932D-02  0.196681D-01  0.292323D+00  0.787212D-01 -0.598860D-01
     13  -0.137706D-02 -0.346406D-01 -0.879393D-01 -0.318935D-01 -0.691577D-02
     14   0.814207D-01  0.377209D-01 -0.744716D+00 -0.184968D+00  0.154525D+00
     15   0.468876D-01  0.178033D+00  0.133291D+00  0.654732D-01  0.100213D+00
     16  -0.205066D-01 -0.717674D-01 -0.530442D-01  0.449497D-02 -0.331435D-01
 1\1\GINC-N012\FOpt\RPBE1PBE TD-FC\def2TZVP\C19H18N2O3\ARTD\09-May-2024
 \0\\#p PBE1PBE/def2TZVP EmpiricalDispersion=GD3BJ SCRF(PCM,Solvent=chl
 oroform) TD(Singlets,NStates=5, root=1) opt guess=(read) geom=(allchec
 k) gfinput\\TITLE\\0,1\C,-5.325717547,1.2308838917,-1.5340504131\C,-4.
 3694236882,0.7298148107,-0.6902068941\C,-3.464538218,1.6508437456,-0.1
 225775736\C,-3.5570272524,3.0479136108,-0.3773198025\C,-4.5200530622,3
 .5199084665,-1.2280011676\C,-5.4012316734,2.6077818297,-1.8102318462\H
 ,-4.2889042911,-0.3299243049,-0.4923572383\H,-6.1669307283,2.965431415
 2,-2.4863375338\H,-6.02934489,0.5589633686,-2.0077301716\H,-4.60790162
 51,4.5772845977,-1.4423722984\N,-2.4319070474,1.3970987593,0.676018612
 6\C,-1.542764675,2.625146657,0.7830304263\C,-2.5566970284,3.7701279447
 ,0.4753183094\C,-2.0717235535,0.0963634259,1.1697129374\H,-1.429856018
 2,0.2172352921,2.0385763701\H,-1.5284367957,-0.4656887326,0.4054450097
 \C,-3.284123284,4.2298990646,1.7458370551\H,-3.6839964712,3.3899263014
 ,2.3178506289\H,-4.1179458368,4.8754053459,1.4674251641\H,-2.611536466
 2,4.8043835664,2.3837272948\C,-1.9015747428,4.9603069905,-0.203898544\
 H,-1.4738671771,4.6913233708,-1.167292963\H,-1.1073003536,5.3602126654
 ,0.4287654834\H,-2.640570669,5.750096845,-0.3520659262\O,-0.6660513282
 ,2.5764680115,-0.2986563199\C,0.435134488,1.7475064987,-0.1818111366\C
 ,-0.8335533585,2.6816213222,2.0954353718\C,0.389852519,2.1604680981,2.
 2044037589\C,1.0288994013,1.5419153883,1.0631363029\H,-1.3437429149,3.
 1162080102,2.9426869094\H,0.9155399043,2.1787135922,3.153074269\C,2.16
 79528087,0.7558369282,1.1595824357\C,0.9860021869,1.2049706195,-1.3294
 063436\C,2.1168599402,0.4163765957,-1.2362927988\C,2.7162879241,0.1749
 81707,0.0118408329\H,2.6384760444,0.5747896221,2.1162160424\H,0.521054
 0107,1.3974247142,-2.2890537621\H,2.5585291697,-0.0339774821,-2.113451
 7992\N,3.8432917113,-0.6372644394,0.106696642\O,4.3559557704,-0.842504
 6726,1.2510483882\O,4.3203647979,-1.150155217,-0.9528347733\H,-2.96856
 00349,-0.4529700919,1.4543071548\\Version=ES64L-G16RevA.03\State=1-A\H
 F=-1069.1531267\RMSD=5.590e-09\RMSF=2.301e-06\Dipole=-11.7117507,4.267
 337,0.1902961\PG=C01 [X(C19H18N2O3)]\\@


 I WISH TO HAVE NO CONNECTION WITH ANY SHIP THAT DOES NOT SAIL FAST,
 FOR I INTEND TO GO IN HARM'S WAY.
     -- JOHN PAUL JONES, USN 1747-1792
 Job cpu time:      31 days  7 hours  1 minutes 21.7 seconds.
 Elapsed time:       1 days  7 hours 18 minutes  0.1 seconds.
 File lengths (MBytes):  RWF=   2537 Int=      0 D2E=      0 Chk=    181 Scr=      1
 Normal termination of Gaussian 16 at Thu May  9 03:05:36 2024.
